LAMMPS DATA FOR MEAM SIMULATION

   3598   atoms
      3   atom types

  -33.82   33.82   xlo xhi
  -33.82   33.82   ylo yhi
  -33.82   33.82   zlo zhi

 Atoms

     1   2     0.00000     0.00000    -0.00000
     2   3     2.75000     0.00000    -0.00000
     3   2     1.37500     2.38157    -0.00000
     4   2    -1.37500     2.38157    -0.00000
     5   1    -2.75000     0.00000    -0.00000
     6   3    -1.37500    -2.38157    -0.00000
     7   2     1.37500    -2.38157    -0.00000
     8   2     1.37500    -0.79386     2.24537
     9   2    -1.37500    -0.79386     2.24537
    10   1     1.37500     0.79386    -2.24537
    11   3    -1.37500     0.79386    -2.24537
    12   1     5.50000     0.00000    -0.00000
    13   1     2.75000     4.76314    -0.00000
    14   3    -2.75000     4.76314    -0.00000
    15   2    -2.75000    -4.76314    -0.00000
    16   3     2.75000    -4.76314    -0.00000
    17   2     2.75000    -1.58771     4.49073
    18   2     0.00000     3.17543     4.49073
    19   2     0.00000    -3.17543    -4.49073
    20   3     2.75000     1.58771    -4.49073
    21   3    -2.75000     1.58771    -4.49073
    22   1     4.12500     2.38157    -0.00000
    23   2     4.12500    -0.79386     2.24537
    24   3     4.12500     0.79386    -2.24537
    25   1     0.00000     4.76314    -0.00000
    26   1     1.37500     3.96928     2.24537
    27   2     2.75000     3.17543    -2.24537
    28   1    -4.12500     2.38157    -0.00000
    29   2    -1.37500     3.96928     2.24537
    30   1    -2.75000     3.17543    -2.24537
    31   1    -4.12500    -2.38157    -0.00000
    32   1    -4.12500    -0.79386     2.24537
    33   1    -4.12500     0.79386    -2.24537
    34   3     0.00000    -4.76314    -0.00000
    35   2    -2.75000    -3.17543     2.24537
    36   2    -1.37500    -3.96928    -2.24537
    37   3     4.12500    -2.38157    -0.00000
    38   2     2.75000    -3.17543     2.24537
    39   2     1.37500    -3.96928    -2.24537
    40   2     0.00000    -1.58771     4.49073
    41   1    -1.37500     0.79386     4.49073
    42   2     1.37500    -0.79386    -4.49073
    43   1    -1.37500    -0.79386    -4.49073
    44   3     2.75000     1.58771     2.24537
    45   3     0.00000     3.17543    -2.24537
    46   1    -2.75000     1.58771     2.24537
    47   3    -2.75000    -1.58771    -2.24537
    48   2     0.00000    -3.17543     2.24537
    49   2     8.25000     0.00000    -0.00000
    50   1    -4.12500     7.14471    -0.00000
    51   1    -8.25000     0.00000    -0.00000
    52   1    -4.12500    -7.14471    -0.00000
    53   3     4.12500    -7.14471    -0.00000
    54   2     0.00000     4.76314     6.73610
    55   2    -4.12500    -2.38157     6.73610
    56   3     0.00000    -4.76314    -6.73610
    57   3    -4.12500     2.38157    -6.73610
    58   1     6.87500    -0.79386     2.24537
    59   3     6.87500     0.79386    -2.24537
    60   3     1.37500     7.14471    -0.00000
    61   1     2.75000     6.35085     2.24537
    62   3     4.12500     5.55700    -2.24537
    63   1    -5.50000     4.76314    -0.00000
    64   3    -2.75000     6.35085     2.24537
    65   1    -4.12500     5.55700    -2.24537
    66   3    -6.87500    -2.38157    -0.00000
    67   1    -6.87500    -0.79386     2.24537
    68   1    -6.87500     0.79386    -2.24537
    69   1    -1.37500    -7.14471    -0.00000
    70   3    -4.12500    -5.55700     2.24537
    71   1    -2.75000    -6.35085    -2.24537
    72   2     5.50000    -4.76314    -0.00000
    73   2     4.12500    -5.55700     2.24537
    74   3     2.75000    -6.35085    -2.24537
    75   2    -1.37500     2.38157     6.73610
    76   3     1.37500    -2.38157    -6.73610
    77   2    -1.37500    -2.38157    -6.73610
    78   3     1.37500     2.38157    -6.73610
    79   1     5.50000     4.76314    -0.00000
    80   2     5.50000    -1.58771     4.49073
    81   3     5.50000     1.58771    -4.49073
    82   2    -1.37500     7.14471    -0.00000
    83   3     1.37500     5.55700     4.49073
    84   1     4.12500     3.96928    -4.49073
    85   2    -6.87500     2.38157    -0.00000
    86   2    -1.37500     5.55700     4.49073
    87   2    -4.12500     3.96928    -4.49073
    88   3    -5.50000    -4.76314    -0.00000
    89   2    -5.50000    -1.58771     4.49073
    90   1    -5.50000     1.58771    -4.49073
    91   2     1.37500    -7.14471    -0.00000
    92   2    -4.12500    -3.96928     4.49073
    93   1    -1.37500    -5.55700    -4.49073
    94   1     6.87500    -2.38157    -0.00000
    95   2     4.12500    -3.96928     4.49073
    96   1     1.37500    -5.55700    -4.49073
    97   1     1.37500     2.38157     6.73610
    98   1    -1.37500    -2.38157     6.73610
    99   2    -2.75000     0.00000     6.73610
   100   2     2.75000     0.00000    -6.73610
   101   2    -2.75000     0.00000    -6.73610
   102   1     5.50000     3.17543    -2.24537
   103   2     0.00000     6.35085     2.24537
   104   2    -5.50000    -3.17543     2.24537
   105   2     5.50000    -3.17543     2.24537
   106   2     0.00000     0.00000     6.73610
   107   2     0.00000     0.00000    -6.73610
   108   1     5.50000     1.58771     2.24537
   109   3     1.37500     5.55700    -2.24537
   110   2    -4.12500     3.96928     2.24537
   111   1    -5.50000    -1.58771    -2.24537
   112   1    -1.37500    -5.55700     2.24537
   113   1     4.12500    -3.96928    -2.24537
   114   1     4.12500     0.79386     4.49073
   115   2     1.37500     3.96928    -4.49073
   116   2    -2.75000     3.17543     4.49073
   117   2    -1.37500    -3.96928     4.49073
   118   1     2.75000    -3.17543    -4.49073
   119   3     4.12500     3.96928     2.24537
   120   2    -1.37500     5.55700    -2.24537
   121   3    -5.50000     1.58771     2.24537
   122   2    -4.12500    -3.96928    -2.24537
   123   1     1.37500    -5.55700     2.24537
   124   2     5.50000    -1.58771    -2.24537
   125   1    -1.37500     3.96928    -4.49073
   126   1    -4.12500     0.79386     4.49073
   127   2    -2.75000    -3.17543    -4.49073
   128   2     1.37500    -3.96928     4.49073
   129   1     4.12500    -0.79386    -4.49073
   130   2    11.00000     0.00000    -0.00000
   131   3     5.50000     9.52628    -0.00000
   132   1    -5.50000     9.52628    -0.00000
   133   2   -11.00000     0.00000    -0.00000
   134   1    -5.50000    -9.52628    -0.00000
   135   1     5.50000    -9.52628    -0.00000
   136   1     5.50000    -3.17543     8.98146
   137   2     0.00000     6.35085     8.98146
   138   2    -5.50000    -3.17543     8.98146
   139   2     0.00000    -6.35085    -8.98146
   140   3     5.50000     3.17543    -8.98146
   141   3     9.62500     2.38157    -0.00000
   142   2     9.62500    -0.79386     2.24537
   143   2     9.62500     0.79386    -2.24537
   144   1     2.75000     9.52628    -0.00000
   145   1     4.12500     8.73242     2.24537
   146   2     5.50000     7.93857    -2.24537
   147   2    -6.87500     7.14471    -0.00000
   148   1    -4.12500     8.73242     2.24537
   149   1    -5.50000     7.93857    -2.24537
   150   1    -9.62500    -2.38157    -0.00000
   151   2    -9.62500    -0.79386     2.24537
   152   1    -9.62500     0.79386    -2.24537
   153   3    -2.75000    -9.52628    -0.00000
   154   2    -5.50000    -7.93857     2.24537
   155   1     6.87500    -7.14471    -0.00000
   156   3     5.50000    -7.93857     2.24537
   157   2     4.12500    -8.73242    -2.24537
   158   2     4.12500    -0.79386     8.98146
   159   3     2.75000    -3.17543     8.98146
   160   2    -1.37500     3.96928     8.98146
   161   2     1.37500    -3.96928    -8.98146
   162   1    -1.37500    -3.96928    -8.98146
   163   2     2.75000     3.17543    -8.98146
   164   1     8.25000    -1.58771     4.49073
   165   3     8.25000     1.58771    -4.49073
   166   2     0.00000     9.52628    -0.00000
   167   1     2.75000     7.93857     4.49073
   168   2     5.50000     6.35085    -4.49073
   169   3    -8.25000     4.76314    -0.00000
   170   3    -5.50000     6.35085    -4.49073
   171   3    -8.25000    -4.76314    -0.00000
   172   3    -8.25000    -1.58771     4.49073
   173   3     0.00000    -9.52628    -0.00000
   174   2    -5.50000    -6.35085     4.49073
   175   1    -2.75000    -7.93857    -4.49073
   176   2     8.25000    -4.76314    -0.00000
   177   2     5.50000    -6.35085     4.49073
   178   2     2.75000    -7.93857    -4.49073
   179   2     2.75000     1.58771     8.98146
   180   1    -2.75000     1.58771     8.98146
   181   3     0.00000     3.17543    -8.98146
   182   2     6.87500     7.14471    -0.00000
   183   1     6.87500    -2.38157     6.73610
   184   3     6.87500     2.38157    -6.73610
   185   2    -2.75000     9.52628    -0.00000
   186   1     1.37500     7.14471     6.73610
   187   2     5.50000     4.76314    -6.73610
   188   2    -9.62500     2.38157    -0.00000
   189   2    -1.37500     7.14471     6.73610
   190   2    -6.87500    -7.14471    -0.00000
   191   3    -6.87500    -2.38157     6.73610
   192   1    -6.87500     2.38157    -6.73610
   193   3     2.75000    -9.52628    -0.00000
   194   3    -5.50000    -4.76314     6.73610
   195   3    -1.37500    -7.14471    -6.73610
   196   3     5.50000    -4.76314     6.73610
   197   1     1.37500    -7.14471    -6.73610
   198   3     1.37500     3.96928     8.98146
   199   2    -2.75000    -3.17543     8.98146
   200   3    -4.12500    -0.79386     8.98146
   201   1     4.12500     0.79386    -8.98146
   202   1    -2.75000     3.17543    -8.98146
   203   3     8.25000     3.17543    -2.24537
   204   2     1.37500     8.73242     2.24537
   205   3    -6.87500     5.55700    -2.24537
   206   2    -8.25000    -3.17543     2.24537
   207   3    -1.37500    -8.73242    -2.24537
   208   1     6.87500    -5.55700     2.24537
   209   1     1.37500    -0.79386     8.98146
   210   3     0.00000    -1.58771    -8.98146
   211   2     6.87500     3.96928    -4.49073
   212   2     0.00000     7.93857     4.49073
   213   2    -6.87500    -3.96928     4.49073
   214   2     0.00000    -7.93857    -4.49073
   215   3     6.87500    -3.96928     4.49073
   216   1    -1.37500    -0.79386     8.98146
   217   2    -1.37500     0.79386    -8.98146
   218   3     8.25000     1.58771     2.24537
   219   3     2.75000     7.93857    -2.24537
   220   3    -5.50000     6.35085     2.24537
   221   2    -2.75000    -7.93857     2.24537
   222   1     5.50000    -6.35085    -2.24537
   223   3     6.87500     0.79386     4.49073
   224   2     2.75000     6.35085    -4.49073
   225   2    -4.12500     5.55700     4.49073
   226   3    -6.87500    -0.79386    -4.49073
   227   3    -2.75000    -6.35085     4.49073
   228   2     4.12500    -5.55700    -4.49073
   229   3     5.50000     0.00000     6.73610
   230   1     2.75000     4.76314    -6.73610
   231   2    -2.75000     4.76314     6.73610
   232   3    -5.50000     0.00000    -6.73610
   233   2    -2.75000    -4.76314     6.73610
   234   2     2.75000    -4.76314    -6.73610
   235   1     6.87500     5.55700    -2.24537
   236   2    -1.37500     8.73242     2.24537
   237   1    -8.25000     3.17543    -2.24537
   238   2    -6.87500    -5.55700     2.24537
   239   2     1.37500    -8.73242    -2.24537
   240   1     8.25000    -3.17543     2.24537
   241   1     0.00000     1.58771     8.98146
   242   2     6.87500     3.96928     2.24537
   243   3     0.00000     7.93857    -2.24537
   244   2    -6.87500     3.96928     2.24537
   245   3    -6.87500    -3.96928    -2.24537
   246   1     0.00000    -7.93857     2.24537
   247   3     6.87500    -3.96928    -2.24537
   248   2     5.50000     3.17543     4.49073
   249   1     0.00000     6.35085    -4.49073
   250   3    -5.50000     3.17543     4.49073
   251   3    -5.50000    -3.17543    -4.49073
   252   2     0.00000    -6.35085     4.49073
   253   1     5.50000    -3.17543    -4.49073
   254   1     4.12500     2.38157     6.73610
   255   2     0.00000     4.76314    -6.73610
   256   3    -4.12500     2.38157     6.73610
   257   2    -4.12500    -2.38157    -6.73610
   258   2     0.00000    -4.76314     6.73610
   259   1     4.12500    -2.38157    -6.73610
   260   2     5.50000     6.35085     2.24537
   261   1    -2.75000     7.93857    -2.24537
   262   1    -5.50000    -6.35085    -2.24537
   263   2     2.75000    -7.93857     2.24537
   264   2     8.25000    -1.58771    -2.24537
   265   3     4.12500     5.55700     4.49073
   266   3    -2.75000     6.35085    -4.49073
   267   3    -6.87500     0.79386     4.49073
   268   3    -4.12500    -5.55700    -4.49073
   269   2     2.75000    -6.35085     4.49073
   270   2     6.87500    -0.79386    -4.49073
   271   1     2.75000     4.76314     6.73610
   272   3    -2.75000     4.76314    -6.73610
   273   3    -5.50000     0.00000     6.73610
   274   2    -2.75000    -4.76314    -6.73610
   275   1     2.75000    -4.76314     6.73610
   276   1    13.75000     0.00000    -0.00000
   277   1     6.87500    11.90785    -0.00000
   278   2   -13.75000     0.00000    -0.00000
   279   2     6.87500   -11.90785    -0.00000
   280   1     6.87500    -3.96928    11.22683
   281   2    -6.87500    -3.96928    11.22683
   282   3     0.00000    -7.93857   -11.22683
   283   3     6.87500     3.96928   -11.22683
   284   3    -6.87500     3.96928   -11.22683
   285   2    12.37500     2.38157    -0.00000
   286   1    12.37500    -0.79386     2.24537
   287   2     4.12500    11.90785    -0.00000
   288   2     5.50000    11.11399     2.24537
   289   1     6.87500    10.32014    -2.24537
   290   1    -8.25000     9.52628    -0.00000
   291   3    -5.50000    11.11399     2.24537
   292   2    -6.87500    10.32014    -2.24537
   293   3   -12.37500    -2.38157    -0.00000
   294   1   -12.37500    -0.79386     2.24537
   295   3   -12.37500     0.79386    -2.24537
   296   2    -4.12500   -11.90785    -0.00000
   297   1    -6.87500   -10.32014     2.24537
   298   1    -5.50000   -11.11399    -2.24537
   299   2     8.25000    -9.52628    -0.00000
   300   2     6.87500   -10.32014     2.24537
   301   2     5.50000   -11.11399    -2.24537
   302   3     5.50000    -1.58771    11.22683
   303   2     4.12500    -3.96928    11.22683
   304   2    -1.37500     5.55700    11.22683
   305   2     1.37500    -5.55700   -11.22683
   306   2    -1.37500    -5.55700   -11.22683
   307   1     4.12500     3.96928   -11.22683
   308   3    11.00000     4.76314    -0.00000
   309   2    11.00000    -1.58771     4.49073
   310   3    11.00000     1.58771    -4.49073
   311   3     1.37500    11.90785    -0.00000
   312   2     4.12500    10.32014     4.49073
   313   2     6.87500     8.73242    -4.49073
   314   3    -9.62500     7.14471    -0.00000
   315   1    -4.12500    10.32014     4.49073
   316   1    -6.87500     8.73242    -4.49073
   317   3   -11.00000    -4.76314    -0.00000
   318   2   -11.00000    -1.58771     4.49073
   319   2   -11.00000     1.58771    -4.49073
   320   2    -6.87500    -8.73242     4.49073
   321   2    -4.12500   -10.32014    -4.49073
   322   2     9.62500    -7.14471    -0.00000
   323   3     6.87500    -8.73242     4.49073
   324   3     4.12500   -10.32014    -4.49073
   325   2     4.12500     0.79386    11.22683
   326   2     1.37500    -3.96928    11.22683
   327   2     2.75000    -3.17543   -11.22683
   328   2     1.37500     3.96928   -11.22683
   329   3     9.62500     7.14471    -0.00000
   330   2     9.62500    -2.38157     6.73610
   331   2     9.62500     2.38157    -6.73610
   332   1    -1.37500    11.90785    -0.00000
   333   3     2.75000     9.52628     6.73610
   334   2     6.87500     7.14471    -6.73610
   335   1    -6.87500     7.14471    -6.73610
   336   2    -9.62500    -7.14471    -0.00000
   337   3    -9.62500    -2.38157     6.73610
   338   2    -9.62500     2.38157    -6.73610
   339   3     1.37500   -11.90785    -0.00000
   340   3    -6.87500    -7.14471     6.73610
   341   2    -2.75000    -9.52628    -6.73610
   342   2    11.00000    -4.76314    -0.00000
   343   2     6.87500    -7.14471     6.73610
   344   1     2.75000    -9.52628    -6.73610
   345   3     2.75000     3.17543    11.22683
   346   3    -1.37500    -3.96928    11.22683
   347   1    -4.12500     0.79386    11.22683
   348   3     4.12500    -0.79386   -11.22683
   349   2    -4.12500    -0.79386   -11.22683
   350   2    -1.37500     3.96928   -11.22683
   351   2     8.25000     9.52628    -0.00000
   352   2     8.25000    -3.17543     8.98146
   353   3     8.25000     3.17543    -8.98146
   354   3    -4.12500    11.90785    -0.00000
   355   2     1.37500     8.73242     8.98146
   356   3     6.87500     5.55700    -8.98146
   357   2   -12.37500     2.38157    -0.00000
   358   1    -1.37500     8.73242     8.98146
   359   1    -6.87500     5.55700    -8.98146
   360   2    -8.25000    -9.52628    -0.00000
   361   1    -8.25000    -3.17543     8.98146
   362   3    -8.25000     3.17543    -8.98146
   363   2     4.12500   -11.90785    -0.00000
   364   3    -6.87500    -5.55700     8.98146
   365   2    -1.37500    -8.73242    -8.98146
   366   3    12.37500    -2.38157    -0.00000
   367   1     6.87500    -5.55700     8.98146
   368   2     1.37500    -8.73242    -8.98146
   369   2     1.37500     5.55700    11.22683
   370   1    -4.12500    -3.96928    11.22683
   371   3    -5.50000    -1.58771    11.22683
   372   3     5.50000     1.58771   -11.22683
   373   3    -5.50000     1.58771   -11.22683
   374   2    -4.12500     3.96928   -11.22683
   375   3    11.00000     3.17543    -2.24537
   376   3     2.75000    11.11399     2.24537
   377   2    -8.25000     7.93857    -2.24537
   378   2   -11.00000    -3.17543     2.24537
   379   1    -2.75000   -11.11399    -2.24537
   380   2     8.25000    -7.93857     2.24537
   381   2     2.75000    -1.58771    11.22683
   382   1     0.00000    -3.17543   -11.22683
   383   2     1.37500    10.32014     4.49073
   384   2    -8.25000     6.35085    -4.49073
   385   3    -9.62500    -3.96928     4.49073
   386   2    -1.37500   -10.32014    -4.49073
   387   3     8.25000    -6.35085     4.49073
   388   2     0.00000    -1.58771    11.22683
   389   2    -1.37500    -0.79386   -11.22683
   390   2     8.25000     4.76314    -6.73610
   391   3     0.00000     9.52628     6.73610
   392   1    -8.25000     4.76314    -6.73610
   393   1     0.00000    -9.52628    -6.73610
   394   3     8.25000    -4.76314     6.73610
   395   2    -2.75000    -1.58771    11.22683
   396   1    -2.75000     1.58771   -11.22683
   397   1    11.00000     1.58771     2.24537
   398   2     4.12500    10.32014    -2.24537
   399   2    -6.87500     8.73242     2.24537
   400   3   -11.00000    -1.58771    -2.24537
   401   2    -4.12500   -10.32014     2.24537
   402   1     6.87500    -8.73242    -2.24537
   403   1     9.62500     0.79386     4.49073
   404   2     4.12500     8.73242    -4.49073
   405   1    -5.50000     7.93857     4.49073
   406   2    -9.62500    -0.79386    -4.49073
   407   2    -4.12500    -8.73242     4.49073
   408   2     5.50000    -7.93857    -4.49073
   409   1     8.25000     0.00000     6.73610
   410   1     4.12500     7.14471    -6.73610
   411   3    -4.12500     7.14471     6.73610
   412   1    -8.25000     0.00000    -6.73610
   413   2    -4.12500    -7.14471     6.73610
   414   2     4.12500    -7.14471    -6.73610
   415   3     6.87500    -0.79386     8.98146
   416   2     4.12500     5.55700    -8.98146
   417   1    -6.87500     0.79386    -8.98146
   418   3    -4.12500    -5.55700     8.98146
   419   2     2.75000    -6.35085    -8.98146
   420   3     9.62500     5.55700    -2.24537
   421   1     0.00000    11.11399     2.24537
   422   2    -9.62500     5.55700    -2.24537
   423   3    -9.62500    -5.55700     2.24537
   424   2     0.00000   -11.11399    -2.24537
   425   1     9.62500    -5.55700     2.24537
   426   3     1.37500     0.79386    11.22683
   427   1     1.37500    -0.79386   -11.22683
   428   2     8.25000     6.35085    -4.49073
   429   1    -9.62500     3.96928    -4.49073
   430   2    -8.25000    -6.35085     4.49073
   431   3     9.62500    -3.96928     4.49073
   432   3    -1.37500     0.79386    11.22683
   433   3     0.00000     1.58771   -11.22683
   434   1     9.62500     3.96928     2.24537
   435   3     1.37500    10.32014    -2.24537
   436   2    -8.25000     6.35085     2.24537
   437   3    -9.62500    -3.96928    -2.24537
   438   1     8.25000    -6.35085    -2.24537
   439   1     8.25000     3.17543     4.49073
   440   2    -6.87500     5.55700     4.49073
   441   3    -8.25000    -3.17543    -4.49073
   442   2    -1.37500    -8.73242     4.49073
   443   3     6.87500    -5.55700    -4.49073
   444   2     6.87500     2.38157     6.73610
   445   1     1.37500     7.14471    -6.73610
   446   1    -5.50000     4.76314     6.73610
   447   2    -6.87500    -2.38157    -6.73610
   448   1    -1.37500    -7.14471     6.73610
   449   2     5.50000    -4.76314    -6.73610
   450   2     5.50000     1.58771     8.98146
   451   3    -4.12500     3.96928     8.98146
   452   1    -5.50000    -1.58771    -8.98146
   453   3    -1.37500    -5.55700     8.98146
   454   2     4.12500    -3.96928    -8.98146
   455   2     8.25000     7.93857    -2.24537
   456   2    -2.75000    11.11399     2.24537
   457   1    -8.25000    -7.93857     2.24537
   458   3     2.75000   -11.11399    -2.24537
   459   1    11.00000    -3.17543     2.24537
   460   3     0.00000     3.17543    11.22683
   461   1     2.75000     1.58771   -11.22683
   462   1     8.25000     6.35085     2.24537
   463   2    -1.37500    10.32014    -2.24537
   464   2    -9.62500     3.96928     2.24537
   465   2    -8.25000    -6.35085    -2.24537
   466   3     1.37500   -10.32014     2.24537
   467   1     9.62500    -3.96928    -2.24537
   468   2     6.87500     5.55700     4.49073
   469   1    -1.37500     8.73242    -4.49073
   470   2    -8.25000     3.17543     4.49073
   471   3    -6.87500    -5.55700    -4.49073
   472   1     1.37500    -8.73242     4.49073
   473   2     8.25000    -3.17543    -4.49073
   474   2    -1.37500     7.14471    -6.73610
   475   2    -6.87500     2.38157     6.73610
   476   2     1.37500    -7.14471     6.73610
   477   1     6.87500    -2.38157    -6.73610
   478   1     4.12500     3.96928     8.98146
   479   1    -1.37500     5.55700    -8.98146
   480   1    -5.50000     1.58771     8.98146
   481   2    -4.12500    -3.96928    -8.98146
   482   2     1.37500    -5.55700     8.98146
   483   2    -4.12500    10.32014    -2.24537
   484   3   -11.00000     1.58771     2.24537
   485   3    -6.87500    -8.73242    -2.24537
   486   2     4.12500   -10.32014     2.24537
   487   3    11.00000    -1.58771    -2.24537
   488   2     5.50000     7.93857     4.49073
   489   2    -9.62500     0.79386     4.49073
   490   3    -5.50000    -7.93857    -4.49073
   491   3     4.12500    -8.73242     4.49073
   492   3     9.62500    -0.79386    -4.49073
   493   3     4.12500     7.14471     6.73610
   494   2    -4.12500     7.14471    -6.73610
   495   3    -8.25000     0.00000     6.73610
   496   3    -4.12500    -7.14471    -6.73610
   497   2     4.12500    -7.14471     6.73610
   498   3    -4.12500     5.55700    -8.98146
   499   1    -6.87500    -0.79386     8.98146
   500   3    -2.75000    -6.35085    -8.98146
   501   2     4.12500    -5.55700     8.98146
   502   2     6.87500     0.79386    -8.98146
   503   2    16.50000     0.00000    -0.00000
   504   1    -8.25000    14.28942    -0.00000
   505   1   -16.50000     0.00000    -0.00000
   506   1    -8.25000   -14.28942    -0.00000
   507   1     8.25000   -14.28942    -0.00000
   508   1     8.25000    -4.76314    13.47219
   509   3     0.00000     9.52628    13.47219
   510   1    -8.25000    -4.76314    13.47219
   511   1     0.00000    -9.52628   -13.47219
   512   1     8.25000     4.76314   -13.47219
   513   3    15.12500     2.38157    -0.00000
   514   2    15.12500     0.79386    -2.24537
   515   2     5.50000    14.28942    -0.00000
   516   3     6.87500    13.49556     2.24537
   517   3     8.25000    12.70171    -2.24537
   518   1    -9.62500    11.90785    -0.00000
   519   2    -6.87500    13.49556     2.24537
   520   2   -15.12500    -2.38157    -0.00000
   521   3   -15.12500    -0.79386     2.24537
   522   2   -15.12500     0.79386    -2.24537
   523   1    -5.50000   -14.28942    -0.00000
   524   2    -8.25000   -12.70171     2.24537
   525   1    -6.87500   -13.49556    -2.24537
   526   1     9.62500   -11.90785    -0.00000
   527   2     8.25000   -12.70171     2.24537
   528   2     6.87500   -13.49556    -2.24537
   529   2     6.87500    -2.38157    13.47219
   530   2     5.50000    -4.76314    13.47219
   531   1    -1.37500     7.14471    13.47219
   532   1     1.37500    -7.14471   -13.47219
   533   1    -1.37500    -7.14471   -13.47219
   534   1     5.50000     4.76314   -13.47219
   535   3    13.75000     4.76314    -0.00000
   536   3    13.75000    -1.58771     4.49073
   537   1    13.75000     1.58771    -4.49073
   538   1     2.75000    14.28942    -0.00000
   539   1     5.50000    12.70171     4.49073
   540   1     8.25000    11.11399    -4.49073
   541   2   -11.00000     9.52628    -0.00000
   542   1    -5.50000    12.70171     4.49073
   543   2    -8.25000    11.11399    -4.49073
   544   2   -13.75000    -4.76314    -0.00000
   545   2   -13.75000    -1.58771     4.49073
   546   2   -13.75000     1.58771    -4.49073
   547   3    -2.75000   -14.28942    -0.00000
   548   2    -8.25000   -11.11399     4.49073
   549   1    -5.50000   -12.70171    -4.49073
   550   3    11.00000    -9.52628    -0.00000
   551   2     8.25000   -11.11399     4.49073
   552   2     5.50000   -12.70171    -4.49073
   553   3     5.50000     0.00000    13.47219
   554   1     2.75000    -4.76314    13.47219
   555   1     2.75000    -4.76314   -13.47219
   556   3    -2.75000    -4.76314   -13.47219
   557   2     2.75000     4.76314   -13.47219
   558   1    12.37500     7.14471    -0.00000
   559   1    12.37500    -2.38157     6.73610
   560   2    12.37500     2.38157    -6.73610
   561   3     0.00000    14.28942    -0.00000
   562   3     4.12500    11.90785     6.73610
   563   2     8.25000     9.52628    -6.73610
   564   2    -4.12500    11.90785     6.73610
   565   1    -8.25000     9.52628    -6.73610
   566   3   -12.37500    -7.14471    -0.00000
   567   1   -12.37500    -2.38157     6.73610
   568   2   -12.37500     2.38157    -6.73610
   569   2     0.00000   -14.28942    -0.00000
   570   2    -4.12500   -11.90785    -6.73610
   571   2     8.25000    -9.52628     6.73610
   572   3     4.12500   -11.90785    -6.73610
   573   1     4.12500     2.38157    13.47219
   574   3     0.00000    -4.76314    13.47219
   575   1     4.12500    -2.38157   -13.47219
   576   2    -4.12500    -2.38157   -13.47219
   577   2     0.00000     4.76314   -13.47219
   578   1    11.00000     9.52628    -0.00000
   579   3    11.00000    -3.17543     8.98146
   580   2    11.00000     3.17543    -8.98146
   581   2    -2.75000    14.28942    -0.00000
   582   3     2.75000    11.11399     8.98146
   583   2     8.25000     7.93857    -8.98146
   584   1   -13.75000     4.76314    -0.00000
   585   3    -2.75000    11.11399     8.98146
   586   2    -8.25000     7.93857    -8.98146
   587   2   -11.00000    -9.52628    -0.00000
   588   3   -11.00000    -3.17543     8.98146
   589   3   -11.00000     3.17543    -8.98146
   590   1     2.75000   -14.28942    -0.00000
   591   1    -8.25000    -7.93857     8.98146
   592   2    -2.75000   -11.11399    -8.98146
   593   2    13.75000    -4.76314    -0.00000
   594   1     8.25000    -7.93857     8.98146
   595   3     2.75000   -11.11399    -8.98146
   596   2     2.75000     4.76314    13.47219
   597   1    -2.75000    -4.76314    13.47219
   598   2    -5.50000     0.00000    13.47219
   599   2     5.50000     0.00000   -13.47219
   600   3    -5.50000     0.00000   -13.47219
   601   2    -2.75000     4.76314   -13.47219
   602   2     9.62500    11.90785    -0.00000
   603   2     9.62500    -3.96928    11.22683
   604   2     9.62500     3.96928   -11.22683
   605   2    -5.50000    14.28942    -0.00000
   606   3     1.37500    10.32014    11.22683
   607   2   -15.12500     2.38157    -0.00000
   608   2    -1.37500    10.32014    11.22683
   609   1    -8.25000     6.35085   -11.22683
   610   1    -9.62500   -11.90785    -0.00000
   611   2    -9.62500    -3.96928    11.22683
   612   3    -9.62500     3.96928   -11.22683
   613   2     5.50000   -14.28942    -0.00000
   614   3    -8.25000    -6.35085    11.22683
   615   3    -1.37500   -10.32014   -11.22683
   616   2    15.12500    -2.38157    -0.00000
   617   3     8.25000    -6.35085    11.22683
   618   2     1.37500   -10.32014   -11.22683
   619   2    -5.50000    -4.76314    13.47219
   620   2    -6.87500    -2.38157    13.47219
   621   2     6.87500     2.38157   -13.47219
   622   1    -6.87500     2.38157   -13.47219
   623   1    -5.50000     4.76314   -13.47219
   624   1     4.12500    13.49556     2.24537
   625   2    -9.62500    10.32014    -2.24537
   626   2   -13.75000    -3.17543     2.24537
   627   2    -4.12500   -13.49556    -2.24537
   628   2     9.62500   -10.32014     2.24537
   629   1     4.12500    -2.38157    13.47219
   630   3     0.00000    -4.76314   -13.47219
   631   2    12.37500     3.96928    -4.49073
   632   1     2.75000    12.70171     4.49073
   633   2    -9.62500     8.73242    -4.49073
   634   2   -12.37500    -3.96928     4.49073