LAMMPS DATA FOR MEAM SIMULATION

   2739   atoms
      3   atom types

  -31.43   31.43   xlo xhi
  -31.43   31.43   ylo yhi
  -31.43   31.43   zlo zhi

 Atoms

     1   2     0.00000    -0.00000     0.00000
     2   3     2.75000    -0.00000     0.00000
     3   2     1.37500     2.38157     0.00000
     4   3    -2.75000    -0.00000     0.00000
     5   2    -1.37500    -2.38157     0.00000
     6   2     1.37500    -2.38157     0.00000
     7   1     1.37500    -0.79386     2.24537
     8   3     0.00000     1.58771     2.24537
     9   2    -1.37500    -0.79386     2.24537
    10   2     0.00000    -1.58771    -2.24537
    11   3     1.37500     0.79386    -2.24537
    12   2    -1.37500     0.79386    -2.24537
    13   2     5.50000    -0.00000     0.00000
    14   2     2.75000     4.76314     0.00000
    15   1    -2.75000     4.76314     0.00000
    16   3    -5.50000    -0.00000     0.00000
    17   1    -2.75000    -4.76314     0.00000
    18   1     2.75000    -1.58771     4.49073
    19   3     0.00000     3.17543     4.49073
    20   2    -2.75000    -1.58771     4.49073
    21   1     0.00000    -3.17543    -4.49073
    22   1     2.75000     1.58771    -4.49073
    23   2    -2.75000     1.58771    -4.49073
    24   2     4.12500     2.38157     0.00000
    25   2     4.12500    -0.79386     2.24537
    26   2     4.12500     0.79386    -2.24537
    27   1     0.00000     4.76314     0.00000
    28   2     1.37500     3.96928     2.24537
    29   2     2.75000     3.17543    -2.24537
    30   1    -4.12500     2.38157     0.00000
    31   2    -1.37500     3.96928     2.24537
    32   1    -2.75000     3.17543    -2.24537
    33   2    -4.12500    -2.38157     0.00000
    34   2    -4.12500    -0.79386     2.24537
    35   3    -4.12500     0.79386    -2.24537
    36   2     0.00000    -4.76314     0.00000
    37   2    -2.75000    -3.17543     2.24537
    38   2    -1.37500    -3.96928    -2.24537
    39   3     4.12500    -2.38157     0.00000
    40   3     2.75000    -3.17543     2.24537
    41   2     1.37500    -3.96928    -2.24537
    42   1     1.37500     0.79386     4.49073
    43   2     0.00000    -1.58771     4.49073
    44   1    -1.37500     0.79386     4.49073
    45   1     1.37500    -0.79386    -4.49073
    46   2    -1.37500    -0.79386    -4.49073
    47   1     0.00000     1.58771    -4.49073
    48   2     2.75000     1.58771     2.24537
    49   1     0.00000     3.17543    -2.24537
    50   1    -2.75000     1.58771     2.24537
    51   1    -2.75000    -1.58771    -2.24537
    52   3     0.00000    -3.17543     2.24537
    53   3     2.75000    -1.58771    -2.24537
    54   2     8.25000    -0.00000     0.00000
    55   1     4.12500     7.14471     0.00000
    56   2    -4.12500     7.14471     0.00000
    57   1    -4.12500    -7.14471     0.00000
    58   2     4.12500    -7.14471     0.00000
    59   1     0.00000     4.76314     6.73610
    60   2    -4.12500    -2.38157     6.73610
    61   3     0.00000    -4.76314    -6.73610
    62   2     4.12500     2.38157    -6.73610
    63   2    -4.12500     2.38157    -6.73610
    64   2     6.87500     2.38157     0.00000
    65   3     6.87500    -0.79386     2.24537
    66   1     6.87500     0.79386    -2.24537
    67   2     1.37500     7.14471     0.00000
    68   3     2.75000     6.35085     2.24537
    69   3     4.12500     5.55700    -2.24537
    70   2    -5.50000     4.76314     0.00000
    71   1    -2.75000     6.35085     2.24537
    72   2    -6.87500    -2.38157     0.00000
    73   1    -6.87500    -0.79386     2.24537
    74   2    -6.87500     0.79386    -2.24537
    75   2    -4.12500    -5.55700     2.24537
    76   2    -2.75000    -6.35085    -2.24537
    77   1     5.50000    -4.76314     0.00000
    78   2     4.12500    -5.55700     2.24537
    79   3     2.75000    -6.35085    -2.24537
    80   1     2.75000    -0.00000     6.73610
    81   2     1.37500    -2.38157     6.73610
    82   2    -1.37500     2.38157     6.73610
    83   1     1.37500    -2.38157    -6.73610
    84   2     1.37500     2.38157    -6.73610
    85   1     5.50000    -1.58771     4.49073
    86   3     5.50000     1.58771    -4.49073
    87   2    -1.37500     7.14471     0.00000
    88   1     1.37500     5.55700     4.49073
    89   1     4.12500     3.96928    -4.49073
    90   1    -6.87500     2.38157     0.00000
    91   2    -4.12500     3.96928    -4.49073
    92   3    -5.50000    -4.76314     0.00000
    93   3    -5.50000    -1.58771     4.49073
    94   3    -5.50000     1.58771    -4.49073
    95   2     1.37500    -7.14471     0.00000
    96   3    -4.12500    -3.96928     4.49073
    97   1    -1.37500    -5.55700    -4.49073
    98   1     6.87500    -2.38157     0.00000
    99   1     4.12500    -3.96928     4.49073
   100   1     1.37500    -5.55700    -4.49073
   101   2     1.37500     2.38157     6.73610
   102   1    -1.37500    -2.38157     6.73610
   103   2    -2.75000    -0.00000     6.73610
   104   2    -2.75000    -0.00000    -6.73610
   105   2     5.50000     3.17543    -2.24537
   106   2     0.00000     6.35085     2.24537
   107   1    -5.50000     3.17543    -2.24537
   108   2     0.00000    -6.35085    -2.24537
   109   2     5.50000    -3.17543     2.24537
   110   1     0.00000    -0.00000     6.73610
   111   2     0.00000    -0.00000    -6.73610
   112   1     5.50000     1.58771     2.24537
   113   2    -4.12500     3.96928     2.24537
   114   2    -5.50000    -1.58771    -2.24537
   115   2    -1.37500    -5.55700     2.24537
   116   1     1.37500     3.96928    -4.49073
   117   2    -2.75000     3.17543     4.49073
   118   2    -4.12500    -0.79386    -4.49073
   119   2    -1.37500    -3.96928     4.49073
   120   1     2.75000    -3.17543    -4.49073
   121   2     4.12500     3.96928     2.24537
   122   3    -1.37500     5.55700    -2.24537
   123   2    -5.50000     1.58771     2.24537
   124   3    -4.12500    -3.96928    -2.24537
   125   2     1.37500    -5.55700     2.24537
   126   1     5.50000    -1.58771    -2.24537
   127   3     2.75000     3.17543     4.49073
   128   3    -1.37500     3.96928    -4.49073
   129   1    -4.12500     0.79386     4.49073
   130   2    -2.75000    -3.17543    -4.49073
   131   2     1.37500    -3.96928     4.49073
   132   3     4.12500    -0.79386    -4.49073
   133   1     5.50000     9.52628     0.00000
   134   3    -5.50000     9.52628     0.00000
   135   2   -11.00000    -0.00000     0.00000
   136   2    -5.50000    -9.52628     0.00000
   137   1     5.50000    -9.52628     0.00000
   138   2     5.50000    -3.17543     8.98146
   139   2     0.00000     6.35085     8.98146
   140   2    -5.50000    -3.17543     8.98146
   141   2    -5.50000     3.17543    -8.98146
   142   2     9.62500     2.38157     0.00000
   143   2     9.62500    -0.79386     2.24537
   144   1     9.62500     0.79386    -2.24537
   145   1     2.75000     9.52628     0.00000
   146   1     4.12500     8.73242     2.24537
   147   2     5.50000     7.93857    -2.24537
   148   2    -6.87500     7.14471     0.00000
   149   1    -4.12500     8.73242     2.24537
   150   1    -5.50000     7.93857    -2.24537
   151   3    -9.62500    -2.38157     0.00000
   152   2    -9.62500    -0.79386     2.24537
   153   3    -9.62500     0.79386    -2.24537
   154   3    -2.75000    -9.52628     0.00000
   155   1    -5.50000    -7.93857     2.24537
   156   1    -4.12500    -8.73242    -2.24537
   157   2     6.87500    -7.14471     0.00000
   158   2     5.50000    -7.93857     2.24537
   159   1     4.12500    -8.73242    -2.24537
   160   2     4.12500    -0.79386     8.98146
   161   2     2.75000    -3.17543     8.98146
   162   2     1.37500    -3.96928    -8.98146
   163   2     2.75000     3.17543    -8.98146
   164   1     8.25000    -1.58771     4.49073
   165   3     8.25000     1.58771    -4.49073
   166   3     0.00000     9.52628     0.00000
   167   3     2.75000     7.93857     4.49073
   168   2     5.50000     6.35085    -4.49073
   169   3    -8.25000     4.76314     0.00000
   170   1    -2.75000     7.93857     4.49073
   171   1    -5.50000     6.35085    -4.49073
   172   1    -8.25000    -1.58771     4.49073
   173   2    -8.25000     1.58771    -4.49073
   174   1     0.00000    -9.52628     0.00000
   175   1    -5.50000    -6.35085     4.49073
   176   3    -2.75000    -7.93857    -4.49073
   177   2     5.50000    -6.35085     4.49073
   178   1     2.75000    -7.93857    -4.49073
   179   3     2.75000     1.58771     8.98146
   180   1     0.00000    -3.17543     8.98146
   181   2    -2.75000     1.58771     8.98146
   182   2     2.75000    -1.58771    -8.98146
   183   2    -2.75000    -1.58771    -8.98146
   184   3     0.00000     3.17543    -8.98146
   185   2     6.87500     7.14471     0.00000
   186   3     6.87500    -2.38157     6.73610
   187   1     6.87500     2.38157    -6.73610
   188   2    -2.75000     9.52628     0.00000
   189   3     1.37500     7.14471     6.73610
   190   1     5.50000     4.76314    -6.73610
   191   2    -9.62500     2.38157     0.00000
   192   1    -1.37500     7.14471     6.73610
   193   2    -5.50000     4.76314    -6.73610
   194   1    -6.87500    -7.14471     0.00000
   195   2    -6.87500    -2.38157     6.73610
   196   3    -6.87500     2.38157    -6.73610
   197   2     2.75000    -9.52628     0.00000
   198   3    -5.50000    -4.76314     6.73610
   199   1    -1.37500    -7.14471    -6.73610
   200   1     5.50000    -4.76314     6.73610
   201   3     1.37500    -7.14471    -6.73610
   202   2     1.37500     3.96928     8.98146
   203   2    -2.75000    -3.17543     8.98146
   204   3    -4.12500    -0.79386     8.98146
   205   3     4.12500     0.79386    -8.98146
   206   2    -4.12500     0.79386    -8.98146
   207   3    -2.75000     3.17543    -8.98146
   208   3     8.25000     3.17543    -2.24537
   209   1     1.37500     8.73242     2.24537
   210   2    -8.25000    -3.17543     2.24537
   211   2    -1.37500    -8.73242    -2.24537
   212   1     6.87500    -5.55700     2.24537
   213   1     1.37500    -0.79386     8.98146
   214   1     0.00000    -1.58771    -8.98146
   215   2     6.87500     3.96928    -4.49073
   216   3     0.00000     7.93857     4.49073
   217   2    -6.87500    -3.96928     4.49073
   218   2     0.00000    -7.93857    -4.49073
   219   2     6.87500    -3.96928     4.49073
   220   1    -1.37500    -0.79386     8.98146
   221   3    -1.37500     0.79386    -8.98146
   222   3     8.25000     1.58771     2.24537
   223   2     2.75000     7.93857    -2.24537
   224   2    -8.25000    -1.58771    -2.24537
   225   1    -2.75000    -7.93857     2.24537
   226   3     5.50000    -6.35085    -2.24537
   227   1     6.87500     0.79386     4.49073
   228   1     2.75000     6.35085    -4.49073
   229   1    -4.12500     5.55700     4.49073
   230   2    -6.87500    -0.79386    -4.49073
   231   3    -2.75000    -6.35085     4.49073
   232   2     5.50000    -0.00000     6.73610
   233   3     2.75000     4.76314    -6.73610
   234   1    -2.75000     4.76314     6.73610
   235   1    -5.50000    -0.00000    -6.73610
   236   2    -2.75000    -4.76314     6.73610
   237   1     2.75000    -4.76314    -6.73610
   238   2     6.87500     5.55700    -2.24537
   239   1    -1.37500     8.73242     2.24537
   240   3    -8.25000     3.17543    -2.24537
   241   2    -6.87500    -5.55700     2.24537
   242   1     1.37500    -8.73242    -2.24537
   243   1     8.25000    -3.17543     2.24537
   244   3     0.00000     1.58771     8.98146
   245   2     1.37500     0.79386    -8.98146
   246   1     6.87500     3.96928     2.24537
   247   3     0.00000     7.93857    -2.24537
   248   3    -6.87500     3.96928     2.24537
   249   3    -6.87500    -3.96928    -2.24537
   250   3     0.00000    -7.93857     2.24537
   251   3     6.87500    -3.96928    -2.24537
   252   2     5.50000     3.17543     4.49073
   253   3     0.00000     6.35085    -4.49073
   254   1    -5.50000     3.17543     4.49073
   255   1    -5.50000    -3.17543    -4.49073
   256   2     5.50000    -3.17543    -4.49073
   257   3     4.12500     2.38157     6.73610
   258   1     0.00000     4.76314    -6.73610
   259   1    -4.12500     2.38157     6.73610
   260   1    -4.12500    -2.38157    -6.73610
   261   2     0.00000    -4.76314     6.73610
   262   2     4.12500    -2.38157    -6.73610
   263   2     5.50000     6.35085     2.24537
   264   2    -2.75000     7.93857    -2.24537
   265   2    -8.25000     1.58771     2.24537
   266   3    -5.50000    -6.35085    -2.24537
   267   1     2.75000    -7.93857     2.24537
   268   1     8.25000    -1.58771    -2.24537
   269   2     4.12500     5.55700     4.49073
   270   2    -2.75000     6.35085    -4.49073
   271   3    -6.87500     0.79386     4.49073
   272   2    -4.12500    -5.55700    -4.49073
   273   2     6.87500    -0.79386    -4.49073
   274   2    -2.75000     4.76314    -6.73610
   275   1    -5.50000    -0.00000     6.73610
   276   3    -2.75000    -4.76314    -6.73610
   277   1     2.75000    -4.76314     6.73610
   278   1     5.50000    -0.00000    -6.73610
   279   2    13.75000    -0.00000     0.00000
   280   3     6.87500    11.90785     0.00000
   281   2    -6.87500    11.90785     0.00000
   282   2   -13.75000    -0.00000     0.00000
   283   2    -6.87500   -11.90785     0.00000
   284   3     6.87500   -11.90785     0.00000
   285   2     6.87500    -3.96928    11.22683
   286   1     0.00000     7.93857    11.22683
   287   2    -6.87500    -3.96928    11.22683
   288   1     0.00000    -7.93857   -11.22683
   289   2     6.87500     3.96928   -11.22683
   290   2    -6.87500     3.96928   -11.22683
   291   3    12.37500     2.38157     0.00000
   292   2    12.37500    -0.79386     2.24537
   293   2    12.37500     0.79386    -2.24537
   294   2     4.12500    11.90785     0.00000
   295   2     5.50000    11.11399     2.24537
   296   1     6.87500    10.32014    -2.24537
   297   1    -8.25000     9.52628     0.00000
   298   1    -5.50000    11.11399     2.24537
   299   3    -6.87500    10.32014    -2.24537
   300   2   -12.37500    -2.38157     0.00000
   301   2   -12.37500    -0.79386     2.24537
   302   1   -12.37500     0.79386    -2.24537
   303   2    -4.12500   -11.90785     0.00000
   304   1    -6.87500   -10.32014     2.24537
   305   2    -5.50000   -11.11399    -2.24537
   306   1     8.25000    -9.52628     0.00000
   307   2     6.87500   -10.32014     2.24537
   308   2     5.50000   -11.11399    -2.24537
   309   2     5.50000    -1.58771    11.22683
   310   2     4.12500    -3.96928    11.22683
   311   1    -1.37500     5.55700    11.22683
   312   2    -1.37500    -5.55700   -11.22683
   313   1    11.00000     4.76314     0.00000
   314   3    11.00000    -1.58771     4.49073
   315   3    11.00000     1.58771    -4.49073
   316   1     1.37500    11.90785     0.00000
   317   1     4.12500    10.32014     4.49073
   318   1     6.87500     8.73242    -4.49073
   319   2    -9.62500     7.14471     0.00000
   320   1    -4.12500    10.32014     4.49073
   321   2    -6.87500     8.73242    -4.49073
   322   3   -11.00000    -1.58771     4.49073
   323   3   -11.00000     1.58771    -4.49073
   324   3    -1.37500   -11.90785     0.00000
   325   2    -6.87500    -8.73242     4.49073
   326   2    -4.12500   -10.32014    -4.49073
   327   1     9.62500    -7.14471     0.00000
   328   1     6.87500    -8.73242     4.49073
   329   2     4.12500   -10.32014    -4.49073
   330   3     4.12500     0.79386    11.22683
   331   3     1.37500    -3.96928    11.22683
   332   2    -2.75000     3.17543    11.22683
   333   2     2.75000    -3.17543   -11.22683
   334   2    -2.75000    -3.17543   -11.22683
   335   2     1.37500     3.96928   -11.22683
   336   1     9.62500     7.14471     0.00000
   337   2     9.62500    -2.38157     6.73610
   338   2     9.62500     2.38157    -6.73610
   339   2    -1.37500    11.90785     0.00000
   340   3     2.75000     9.52628     6.73610
   341   1   -11.00000     4.76314     0.00000
   342   1    -2.75000     9.52628     6.73610
   343   2    -6.87500     7.14471    -6.73610
   344   1    -9.62500    -7.14471     0.00000
   345   1    -9.62500    -2.38157     6.73610
   346   1    -9.62500     2.38157    -6.73610
   347   3     1.37500   -11.90785     0.00000
   348   1    -6.87500    -7.14471     6.73610
   349   2    -2.75000    -9.52628    -6.73610
   350   1    11.00000    -4.76314     0.00000
   351   2     6.87500    -7.14471     6.73610
   352   2     2.75000    -9.52628    -6.73610
   353   1    -1.37500    -3.96928    11.22683
   354   2    -4.12500     0.79386    11.22683
   355   2    -4.12500    -0.79386   -11.22683
   356   2    -1.37500     3.96928   -11.22683
   357   1     8.25000     9.52628     0.00000
   358   2     8.25000    -3.17543     8.98146
   359   3     8.25000     3.17543    -8.98146
   360   2    -4.12500    11.90785     0.00000
   361   1     1.37500     8.73242     8.98146
   362   2     6.87500     5.55700    -8.98146
   363   2    -1.37500     8.73242     8.98146
   364   3    -6.87500     5.55700    -8.98146
   365   3    -8.25000    -9.52628     0.00000
   366   3    -1.37500    -8.73242    -8.98146
   367   2     6.87500    -5.55700     8.98146
   368   1     1.37500    -8.73242    -8.98146
   369   2     1.37500     5.55700    11.22683
   370   2    -4.12500    -3.96928    11.22683
   371   2    -5.50000    -1.58771    11.22683
   372   1     5.50000     1.58771   -11.22683
   373   2    -5.50000     1.58771   -11.22683
   374   1    -4.12500     3.96928   -11.22683
   375   1    11.00000     3.17543    -2.24537
   376   3     2.75000    11.11399     2.24537
   377   1    -8.25000     7.93857    -2.24537
   378   1    -2.75000   -11.11399    -2.24537
   379   3     2.75000    -1.58771    11.22683
   380   2     0.00000    -3.17543   -11.22683
   381   1     9.62500     3.96928    -4.49073
   382   2     1.37500    10.32014     4.49073
   383   2    -9.62500    -3.96928     4.49073
   384   2     8.25000    -6.35085     4.49073
   385   3     0.00000    -1.58771    11.22683
   386   2     8.25000     4.76314    -6.73610
   387   2     0.00000     9.52628     6.73610
   388   2    -8.25000     4.76314    -6.73610
   389   3     0.00000    -9.52628    -6.73610
   390   3     8.25000    -4.76314     6.73610
   391   2    -2.75000     1.58771   -11.22683
   392   3    11.00000     1.58771     2.24537
   393   3     4.12500    10.32014    -2.24537
   394   2    -6.87500     8.73242     2.24537
   395   2   -11.00000    -1.58771    -2.24537
   396   2    -4.12500   -10.32014     2.24537
   397   1     6.87500    -8.73242    -2.24537
   398   2     9.62500     0.79386     4.49073
   399   1     4.12500     8.73242    -4.49073
   400   3    -5.50000     7.93857     4.49073
   401   2    -9.62500    -0.79386    -4.49073
   402   1    -4.12500    -8.73242     4.49073
   403   1     5.50000    -7.93857    -4.49073
   404   3     8.25000    -0.00000     6.73610
   405   2     4.12500     7.14471    -6.73610
   406   1    -4.12500     7.14471     6.73610
   407   2    -8.25000    -0.00000    -6.73610
   408   1    -4.12500    -7.14471     6.73610
   409   1     6.87500    -0.79386     8.98146
   410   2     4.12500     5.55700    -8.98146
   411   1    -2.75000     6.35085     8.98146
   412   1    -6.87500     0.79386    -8.98146
   413   2    -4.12500    -5.55700     8.98146
   414   2     2.75000    -6.35085    -8.98146
   415   3     9.62500     5.55700    -2.24537
   416   2     0.00000    11.11399     2.24537
   417   2    -9.62500     5.55700    -2.24537
   418   1     9.62500    -5.55700     2.24537
   419   3     1.37500     0.79386    11.22683
   420   2     1.37500    -0.79386   -11.22683
   421   2     8.25000     6.35085    -4.49073
   422   2    -1.37500    10.32014     4.49073
   423   3    -8.25000    -6.35085     4.49073
   424   2     9.62500    -3.96928     4.49073
   425   2    -1.37500     0.79386    11.22683
   426   2     0.00000     1.58771   -11.22683
   427   2     9.62500     3.96928     2.24537
   428   2     1.37500    10.32014    -2.24537
   429   2    -8.25000     6.35085     2.24537
   430   2    -9.62500    -3.96928    -2.24537
   431   3    -1.37500   -10.32014     2.24537
   432   2     8.25000    -6.35085    -2.24537
   433   2     8.25000     3.17543     4.49073
   434   1     1.37500     8.73242    -4.49073
   435   2    -8.25000    -3.17543    -4.49073
   436   3    -1.37500    -8.73242     4.49073
   437   2     6.87500     2.38157     6.73610
   438   2     1.37500     7.14471    -6.73610
   439   2    -5.50000     4.76314     6.73610
   440   2    -6.87500    -2.38157    -6.73610
   441   1    -1.37500    -7.14471     6.73610
   442   3     5.50000     1.58771     8.98146
   443   2     1.37500     5.55700    -8.98146
   444   3    -4.12500     3.96928     8.98146
   445   3    -5.50000    -1.58771    -8.98146
   446   2    -1.37500    -5.55700     8.98146
   447   1     4.12500    -3.96928    -8.98146
   448   2     8.25000     7.93857    -2.24537
   449   3    -2.75000    11.11399     2.24537
   450   1   -11.00000     3.17543    -2.24537
   451   3    -8.25000    -7.93857     2.24537
   452   2     2.75000   -11.11399    -2.24537
   453   2    11.00000    -3.17543     2.24537
   454   3     0.00000     3.17543    11.22683
   455   2     2.75000     1.58771   -11.22683
   456   2     8.25000     6.35085     2.24537
   457   2    -1.37500    10.32014    -2.24537
   458   3    -9.62500     3.96928     2.24537
   459   3    -8.25000    -6.35085    -2.24537
   460   2     1.37500   -10.32014     2.24537
   461   2     9.62500    -3.96928    -2.24537
   462   2     6.87500     5.55700     4.49073
   463   2    -1.37500     8.73242    -4.49073
   464   2    -8.25000     3.17543     4.49073
   465   2    -6.87500    -5.55700    -4.49073
   466   2     1.37500    -8.73242     4.49073
   467   1     8.25000    -3.17543    -4.49073
   468   1     5.50000     4.76314     6.73610
   469   2    -1.37500     7.14471    -6.73610
   470   2    -6.87500     2.38157     6.73610
   471   1    -5.50000    -4.76314    -6.73610
   472   1     1.37500    -7.14471     6.73610
   473   2     4.12500     3.96928     8.98146
   474   2    -5.50000     1.58771     8.98146
   475   2    -4.12500    -3.96928    -8.98146
   476   1     1.37500    -5.55700     8.98146
   477   2     5.50000    -1.58771    -8.98146
   478   2     6.87500     8.73242     2.24537
   479   1    -4.12500    10.32014    -2.24537
   480   1    -6.87500    -8.73242    -2.24537
   481   1    11.00000    -1.58771    -2.24537
   482   2     5.50000     7.93857     4.49073
   483   3    -4.12500     8.73242    -4.49073
   484   2    -9.62500     0.79386     4.49073
   485   2    -5.50000    -7.93857    -4.49073
   486   3     4.12500    -8.73242     4.49073
   487   1     9.62500    -0.79386    -4.49073
   488   2     4.12500     7.14471     6.73610
   489   2    -4.12500     7.14471    -6.73610
   490   2    -4.12500    -7.14471    -6.73610
   491   3     4.12500    -7.14471     6.73610
   492   3     8.25000    -0.00000    -6.73610
   493   2     2.75000     6.35085     8.98146
   494   1    -4.12500     5.55700    -8.98146
   495   2    -6.87500    -0.79386     8.98146
   496   1    -2.75000    -6.35085    -8.98146
   497   3     4.12500    -5.55700     8.98146
   498   2    16.50000    -0.00000     0.00000
   499   2    -8.25000    14.28942     0.00000
   500   2   -16.50000    -0.00000     0.00000
   501   3     8.25000   -14.28942     0.00000
   502   1     8.25000    -4.76314    13.47219
   503   2     0.00000     9.52628    13.47219
   504   2    -8.25000    -4.76314    13.47219
   505   1     0.00000    -9.52628   -13.47219
   506   3    -8.25000     4.76314   -13.47219
   507   1    15.12500     2.38157     0.00000
   508   1    15.12500    -0.79386     2.24537
   509   2    15.12500     0.79386    -2.24537
   510   2     8.25000    12.70171    -2.24537
   511   1    -9.62500    11.90785     0.00000
   512   1    -6.87500    13.49556     2.24537
   513   3   -15.12500    -2.38157     0.00000
   514   2   -15.12500    -0.79386     2.24537
   515   2   -15.12500     0.79386    -2.24537
   516   1    -5.50000   -14.28942     0.00000
   517   3    -6.87500   -13.49556    -2.24537
   518   3     9.62500   -11.90785     0.00000
   519   2     8.25000   -12.70171     2.24537
   520   3     6.87500   -13.49556    -2.24537
   521   2     6.87500    -2.38157    13.47219
   522   1     5.50000    -4.76314    13.47219
   523   3     1.37500    -7.14471   -13.47219
   524   3    -1.37500    -7.14471   -13.47219
   525   2    13.75000     4.76314     0.00000
   526   1    13.75000    -1.58771     4.49073
   527   2    13.75000     1.58771    -4.49073
   528   3     2.75000    14.28942     0.00000
   529   2     5.50000    12.70171     4.49073
   530   1     8.25000    11.11399    -4.49073
   531   2   -11.00000     9.52628     0.00000
   532   1    -5.50000    12.70171     4.49073
   533   1    -8.25000    11.11399    -4.49073
   534   2   -13.75000    -4.76314     0.00000
   535   1   -13.75000    -1.58771     4.49073
   536   3   -13.75000     1.58771    -4.49073
   537   2    -2.75000   -14.28942     0.00000
   538   3    -8.25000   -11.11399     4.49073
   539   2    -5.50000   -12.70171    -4.49073
   540   3    11.00000    -9.52628     0.00000
   541   2     8.25000   -11.11399     4.49073
   542   3     5.50000   -12.70171    -4.49073
   543   3     5.50000    -0.00000    13.47219
   544   3     2.75000    -4.76314    13.47219
   545   1    -2.75000     4.76314    13.47219
   546   2     2.75000    -4.76314   -13.47219
   547   2    -2.75000    -4.76314   -13.47219
   548   3     2.75000     4.76314   -13.47219
   549   2    12.37500     7.14471     0.00000
   550   3    12.37500    -2.38157     6.73610
   551   2    12.37500     2.38157    -6.73610
   552   2     0.00000    14.28942     0.00000
   553   1     4.12500    11.90785     6.73610
   554   2     8.25000     9.52628    -6.73610
   555   2   -12.37500     7.14471     0.00000
   556   1    -4.12500    11.90785     6.73610
   557   2    -8.25000     9.52628    -6.73610
   558   2   -12.37500    -7.14471     0.00000
   559   2   -12.37500    -2.38157     6.73610
   560   1   -12.37500     2.38157    -6.73610
   561   2     0.00000   -14.28942     0.00000
   562   1    -4.12500   -11.90785    -6.73610
   563   3    12.37500    -7.14471     0.00000
   564   2     8.25000    -9.52628     6.73610
   565   3     4.12500   -11.90785    -6.73610
   566   1     4.12500     2.38157    13.47219
   567   3     0.00000    -4.76314    13.47219
   568   2    -4.12500     2.38157    13.47219
   569   1     4.12500    -2.38157   -13.47219
   570   2     0.00000     4.76314   -13.47219
   571   1    11.00000     9.52628     0.00000
   572   2    11.00000    -3.17543     8.98146
   573   2    11.00000     3.17543    -8.98146
   574   2    -2.75000    14.28942     0.00000
   575   3     8.25000     7.93857    -8.98146
   576   2   -13.75000     4.76314     0.00000
   577   3    -2.75000    11.11399     8.98146
   578   1    -8.25000     7.93857    -8.98146
   579   2   -11.00000    -9.52628     0.00000
   580   2   -11.00000    -3.17543     8.98146
   581   3   -11.00000     3.17543    -8.98146
   582   3    -2.75000   -11.11399    -8.98146
   583   2    13.75000    -4.76314     0.00000
   584   1     8.25000    -7.93857     8.98146
   585   3     2.75000   -11.11399    -8.98146
   586   3     2.75000     4.76314    13.47219
   587   1    -2.75000    -4.76314    13.47219
   588   2    -5.50000    -0.00000    13.47219
   589   1     5.50000    -0.00000   -13.47219
   590   2    -5.50000    -0.00000   -13.47219
   591   2     9.62500    11.90785     0.00000
   592   2     9.62500    -3.96928    11.22683
   593   3     9.62500     3.96928   -11.22683
   594   2    -5.50000    14.28942     0.00000
   595   2     1.37500    10.32014    11.22683
   596   2     8.25000     6.35085   -11.22683
   597   2   -15.12500     2.38157     0.00000
   598   3    -1.37500    10.32014    11.22683
   599   2    -8.25000     6.35085   -11.22683
   600   3    -9.62500   -11.90785     0.00000
   601   2    -9.62500    -3.96928    11.22683
   602   1    -9.62500     3.96928   -11.22683
   603   1     5.50000   -14.28942     0.00000
   604   2    -8.25000    -6.35085    11.22683
   605   1    -1.37500   -10.32014   -11.22683
   606   2    15.12500    -2.38157     0.00000
   607   3     8.25000    -6.35085    11.22683
   608   2     1.37500   -10.32014   -11.22683
   609   2     1.37500     7.14471    13.47219
   610   2    -5.50000    -4.76314    13.47219
   611   2    -6.87500    -2.38157    13.47219
   612   1     6.87500     2.38157   -13.47219
   613   1    -6.87500     2.38157   -13.47219
   614   2    -5.50000     4.76314   -13.47219
   615   1    13.75000     3.17543    -2.24537
   616   2     4.12500    13.49556     2.24537
   617   2    -9.62500    10.32014    -2.24537
   618   2   -13.75000    -3.17543     2.24537
   619   2    -4.12500   -13.49556    -2.24537
   620   2     9.62500   -10.32014     2.24537
   621   3     4.12500    -2.38157    13.47219
   622   2     0.00000    -4.76314   -13.47219
   623   2    12.37500     3.96928    -4.49073
   624   2     2.75000    12.70171     4.49073
   625   2    -9.62500     8.73242    -4.49073
   626   2   -12.37500    -3.96928     4.49073
   627   2    -2.75000   -12.70171    -4.49073
   628   2     9.62500    -8.73242     4.49073
   629   3     1.37500    -2.38157    13.47219
   630   3    -1.37500    -2.38157   -13.47219
   631   1    11.00000     4.76314    -6.73610
   632   2     1.37500    11.90785     6.73610
   633   2    -9.62500     7.14471    -6.73610
   634   1   -11.00000    -4.76314     6.73610