LAMMPS DATA FOR MEAM SIMULATION

   2678   atoms
      3   atom types

  -31.43   31.43   xlo xhi
  -31.43   31.43   ylo yhi
  -31.43   31.43   zlo zhi

 Atoms

     1   3     2.75000    -0.00000     0.00000
     2   2     1.37500     2.38157     0.00000
     3   2    -1.37500     2.38157     0.00000
     4   3    -2.75000    -0.00000     0.00000
     5   2    -1.37500    -2.38157     0.00000
     6   2     1.37500    -2.38157     0.00000
     7   1     1.37500    -0.79386     2.24537
     8   3     0.00000     1.58771     2.24537
     9   2    -1.37500    -0.79386     2.24537
    10   2     0.00000    -1.58771    -2.24537
    11   2     5.50000    -0.00000     0.00000
    12   1    -2.75000     4.76314     0.00000
    13   3    -5.50000    -0.00000     0.00000
    14   1    -2.75000    -4.76314     0.00000
    15   2     2.75000    -4.76314     0.00000
    16   1     2.75000    -1.58771     4.49073
    17   3     0.00000     3.17543     4.49073
    18   2    -2.75000    -1.58771     4.49073
    19   1     0.00000    -3.17543    -4.49073
    20   1     2.75000     1.58771    -4.49073
    21   2    -2.75000     1.58771    -4.49073
    22   2     4.12500    -0.79386     2.24537
    23   2     4.12500     0.79386    -2.24537
    24   1     0.00000     4.76314     0.00000
    25   2     1.37500     3.96928     2.24537
    26   2     2.75000     3.17543    -2.24537
    27   1    -4.12500     2.38157     0.00000
    28   1    -2.75000     3.17543    -2.24537
    29   2    -4.12500    -2.38157     0.00000
    30   2    -4.12500    -0.79386     2.24537
    31   3    -4.12500     0.79386    -2.24537
    32   2     0.00000    -4.76314     0.00000
    33   2    -2.75000    -3.17543     2.24537
    34   3     4.12500    -2.38157     0.00000
    35   3     2.75000    -3.17543     2.24537
    36   2     1.37500    -3.96928    -2.24537
    37   1     1.37500     0.79386     4.49073
    38   2     0.00000    -1.58771     4.49073
    39   1    -1.37500     0.79386     4.49073
    40   1     1.37500    -0.79386    -4.49073
    41   2    -1.37500    -0.79386    -4.49073
    42   1     0.00000     1.58771    -4.49073
    43   2     2.75000     1.58771     2.24537
    44   1    -2.75000     1.58771     2.24537
    45   1    -2.75000    -1.58771    -2.24537
    46   3     0.00000    -3.17543     2.24537
    47   3     2.75000    -1.58771    -2.24537
    48   2     8.25000    -0.00000     0.00000
    49   2    -4.12500     7.14471     0.00000
    50   1    -8.25000    -0.00000     0.00000
    51   1    -4.12500    -7.14471     0.00000
    52   2     4.12500    -7.14471     0.00000
    53   2     4.12500    -2.38157     6.73610
    54   1     0.00000     4.76314     6.73610
    55   2    -4.12500    -2.38157     6.73610
    56   3     0.00000    -4.76314    -6.73610
    57   2     4.12500     2.38157    -6.73610
    58   2    -4.12500     2.38157    -6.73610
    59   1     6.87500     0.79386    -2.24537
    60   3     2.75000     6.35085     2.24537
    61   3     4.12500     5.55700    -2.24537
    62   1    -2.75000     6.35085     2.24537
    63   2    -4.12500     5.55700    -2.24537
    64   2    -6.87500    -2.38157     0.00000
    65   1    -6.87500    -0.79386     2.24537
    66   2    -6.87500     0.79386    -2.24537
    67   1    -1.37500    -7.14471     0.00000
    68   2    -4.12500    -5.55700     2.24537
    69   2    -2.75000    -6.35085    -2.24537
    70   1     5.50000    -4.76314     0.00000
    71   2     4.12500    -5.55700     2.24537
    72   3     2.75000    -6.35085    -2.24537
    73   1     2.75000    -0.00000     6.73610
    74   2     1.37500    -2.38157     6.73610
    75   2    -1.37500     2.38157     6.73610
    76   1     1.37500    -2.38157    -6.73610
    77   2     1.37500     2.38157    -6.73610
    78   1     5.50000     4.76314     0.00000
    79   1     5.50000    -1.58771     4.49073
    80   3     5.50000     1.58771    -4.49073
    81   2    -1.37500     7.14471     0.00000
    82   1     1.37500     5.55700     4.49073
    83   1    -6.87500     2.38157     0.00000
    84   2    -1.37500     5.55700     4.49073
    85   2    -4.12500     3.96928    -4.49073
    86   3    -5.50000    -1.58771     4.49073
    87   3    -5.50000     1.58771    -4.49073
    88   2     1.37500    -7.14471     0.00000
    89   3    -4.12500    -3.96928     4.49073
    90   1     6.87500    -2.38157     0.00000
    91   1     4.12500    -3.96928     4.49073
    92   1     1.37500    -5.55700    -4.49073
    93   2     1.37500     2.38157     6.73610
    94   1    -1.37500    -2.38157     6.73610
    95   2    -2.75000    -0.00000     6.73610
    96   2     2.75000    -0.00000    -6.73610
    97   2    -2.75000    -0.00000    -6.73610
    98   2    -1.37500     2.38157    -6.73610
    99   2     5.50000     3.17543    -2.24537
   100   2     0.00000     6.35085     2.24537
   101   1    -5.50000     3.17543    -2.24537
   102   3    -5.50000    -3.17543     2.24537
   103   2     0.00000    -6.35085    -2.24537
   104   2     5.50000    -3.17543     2.24537
   105   1     0.00000    -0.00000     6.73610
   106   2     0.00000    -0.00000    -6.73610
   107   1     5.50000     1.58771     2.24537
   108   1     1.37500     5.55700    -2.24537
   109   2    -4.12500     3.96928     2.24537
   110   2    -5.50000    -1.58771    -2.24537
   111   2    -1.37500    -5.55700     2.24537
   112   1     4.12500     0.79386     4.49073
   113   1     1.37500     3.96928    -4.49073
   114   2    -2.75000     3.17543     4.49073
   115   2    -4.12500    -0.79386    -4.49073
   116   2    -1.37500    -3.96928     4.49073
   117   1     2.75000    -3.17543    -4.49073
   118   2     4.12500     3.96928     2.24537
   119   3    -1.37500     5.55700    -2.24537
   120   2    -5.50000     1.58771     2.24537
   121   3    -4.12500    -3.96928    -2.24537
   122   2     1.37500    -5.55700     2.24537
   123   1     5.50000    -1.58771    -2.24537
   124   3    -1.37500     3.96928    -4.49073
   125   1    -4.12500     0.79386     4.49073
   126   2    -2.75000    -3.17543    -4.49073
   127   2     1.37500    -3.96928     4.49073
   128   3     4.12500    -0.79386    -4.49073
   129   2    11.00000    -0.00000     0.00000
   130   1     5.50000     9.52628     0.00000
   131   3    -5.50000     9.52628     0.00000
   132   2   -11.00000    -0.00000     0.00000
   133   2    -5.50000    -9.52628     0.00000
   134   1     5.50000    -9.52628     0.00000
   135   2     5.50000    -3.17543     8.98146
   136   2     0.00000     6.35085     8.98146
   137   2    -5.50000    -3.17543     8.98146
   138   3     0.00000    -6.35085    -8.98146
   139   1     5.50000     3.17543    -8.98146
   140   2     9.62500     2.38157     0.00000
   141   1     2.75000     9.52628     0.00000
   142   2     5.50000     7.93857    -2.24537
   143   2    -6.87500     7.14471     0.00000
   144   1    -4.12500     8.73242     2.24537
   145   1    -5.50000     7.93857    -2.24537
   146   3    -9.62500    -2.38157     0.00000
   147   2    -9.62500    -0.79386     2.24537
   148   3    -9.62500     0.79386    -2.24537
   149   3    -2.75000    -9.52628     0.00000
   150   1    -5.50000    -7.93857     2.24537
   151   2     6.87500    -7.14471     0.00000
   152   2     5.50000    -7.93857     2.24537
   153   1     4.12500    -8.73242    -2.24537
   154   2     4.12500    -0.79386     8.98146
   155   2    -1.37500     3.96928     8.98146
   156   2     1.37500    -3.96928    -8.98146
   157   2    -1.37500    -3.96928    -8.98146
   158   2     2.75000     3.17543    -8.98146
   159   3     8.25000     4.76314     0.00000
   160   1     8.25000    -1.58771     4.49073
   161   3     8.25000     1.58771    -4.49073
   162   3     2.75000     7.93857     4.49073
   163   2     5.50000     6.35085    -4.49073
   164   3    -8.25000     4.76314     0.00000
   165   1    -2.75000     7.93857     4.49073
   166   1    -5.50000     6.35085    -4.49073
   167   1    -8.25000    -4.76314     0.00000
   168   1    -8.25000    -1.58771     4.49073
   169   2    -8.25000     1.58771    -4.49073
   170   1     0.00000    -9.52628     0.00000
   171   1    -5.50000    -6.35085     4.49073
   172   3    -2.75000    -7.93857    -4.49073
   173   3     8.25000    -4.76314     0.00000
   174   2     5.50000    -6.35085     4.49073
   175   1     2.75000    -7.93857    -4.49073
   176   3     2.75000     1.58771     8.98146
   177   1     0.00000    -3.17543     8.98146
   178   2    -2.75000     1.58771     8.98146
   179   2     2.75000    -1.58771    -8.98146
   180   2     6.87500     7.14471     0.00000
   181   3     6.87500    -2.38157     6.73610
   182   1     6.87500     2.38157    -6.73610
   183   2    -2.75000     9.52628     0.00000
   184   3     1.37500     7.14471     6.73610
   185   1     5.50000     4.76314    -6.73610
   186   2    -9.62500     2.38157     0.00000
   187   1    -1.37500     7.14471     6.73610
   188   1    -6.87500    -7.14471     0.00000
   189   2    -6.87500    -2.38157     6.73610
   190   2     2.75000    -9.52628     0.00000
   191   3    -5.50000    -4.76314     6.73610
   192   1    -1.37500    -7.14471    -6.73610
   193   2     9.62500    -2.38157     0.00000
   194   1     5.50000    -4.76314     6.73610
   195   3     1.37500    -7.14471    -6.73610
   196   2    -2.75000    -3.17543     8.98146
   197   3    -4.12500    -0.79386     8.98146
   198   3     4.12500     0.79386    -8.98146
   199   2    -4.12500     0.79386    -8.98146
   200   3    -2.75000     3.17543    -8.98146
   201   3     8.25000     3.17543    -2.24537
   202   1     1.37500     8.73242     2.24537
   203   2    -6.87500     5.55700    -2.24537
   204   2    -8.25000    -3.17543     2.24537
   205   1     6.87500    -5.55700     2.24537
   206   1     1.37500    -0.79386     8.98146
   207   1     0.00000    -1.58771    -8.98146
   208   2     6.87500     3.96928    -4.49073
   209   3     0.00000     7.93857     4.49073
   210   2    -6.87500    -3.96928     4.49073
   211   2     0.00000    -7.93857    -4.49073
   212   2     6.87500    -3.96928     4.49073
   213   1    -1.37500    -0.79386     8.98146
   214   3     8.25000     1.58771     2.24537
   215   2     2.75000     7.93857    -2.24537
   216   3    -5.50000     6.35085     2.24537
   217   2    -8.25000    -1.58771    -2.24537
   218   3     5.50000    -6.35085    -2.24537
   219   1     2.75000     6.35085    -4.49073
   220   1    -4.12500     5.55700     4.49073
   221   2    -6.87500    -0.79386    -4.49073
   222   3    -2.75000    -6.35085     4.49073
   223   2     5.50000    -0.00000     6.73610
   224   3     2.75000     4.76314    -6.73610
   225   1    -2.75000     4.76314     6.73610
   226   1    -5.50000    -0.00000    -6.73610
   227   2    -2.75000    -4.76314     6.73610
   228   1     2.75000    -4.76314    -6.73610
   229   1    -1.37500     8.73242     2.24537
   230   3    -8.25000     3.17543    -2.24537
   231   2    -6.87500    -5.55700     2.24537
   232   1     1.37500    -8.73242    -2.24537
   233   1     8.25000    -3.17543     2.24537
   234   3     0.00000     1.58771     8.98146
   235   2     1.37500     0.79386    -8.98146
   236   3     0.00000     7.93857    -2.24537
   237   3    -6.87500     3.96928     2.24537
   238   3    -6.87500    -3.96928    -2.24537
   239   3     0.00000    -7.93857     2.24537
   240   3     6.87500    -3.96928    -2.24537
   241   2     5.50000     3.17543     4.49073
   242   3     0.00000     6.35085    -4.49073
   243   1    -5.50000    -3.17543    -4.49073
   244   2     0.00000    -6.35085     4.49073
   245   2     5.50000    -3.17543    -4.49073
   246   3     4.12500     2.38157     6.73610
   247   1     0.00000     4.76314    -6.73610
   248   1    -4.12500     2.38157     6.73610
   249   1    -4.12500    -2.38157    -6.73610
   250   2     0.00000    -4.76314     6.73610
   251   2     4.12500    -2.38157    -6.73610
   252   2    -2.75000     7.93857    -2.24537
   253   2    -8.25000     1.58771     2.24537
   254   3    -5.50000    -6.35085    -2.24537
   255   1     2.75000    -7.93857     2.24537
   256   1     8.25000    -1.58771    -2.24537
   257   2     4.12500     5.55700     4.49073
   258   2    -2.75000     6.35085    -4.49073
   259   1     2.75000    -6.35085     4.49073
   260   3     2.75000     4.76314     6.73610
   261   2    -2.75000     4.76314    -6.73610
   262   1    -5.50000    -0.00000     6.73610
   263   3    -2.75000    -4.76314    -6.73610
   264   1     2.75000    -4.76314     6.73610
   265   1     5.50000    -0.00000    -6.73610
   266   2    13.75000    -0.00000     0.00000
   267   3     6.87500    11.90785     0.00000
   268   2    -6.87500    11.90785     0.00000
   269   2   -13.75000    -0.00000     0.00000
   270   2    -6.87500   -11.90785     0.00000
   271   3     6.87500   -11.90785     0.00000
   272   2     6.87500    -3.96928    11.22683
   273   1     0.00000     7.93857    11.22683
   274   2    -6.87500    -3.96928    11.22683
   275   1     0.00000    -7.93857   -11.22683
   276   2     6.87500     3.96928   -11.22683
   277   2    -6.87500     3.96928   -11.22683
   278   2    12.37500    -0.79386     2.24537
   279   2    12.37500     0.79386    -2.24537
   280   2     4.12500    11.90785     0.00000
   281   2     5.50000    11.11399     2.24537
   282   1     6.87500    10.32014    -2.24537
   283   1    -8.25000     9.52628     0.00000
   284   3    -6.87500    10.32014    -2.24537
   285   2   -12.37500    -2.38157     0.00000
   286   2   -12.37500    -0.79386     2.24537
   287   1   -12.37500     0.79386    -2.24537
   288   2    -4.12500   -11.90785     0.00000
   289   1    -6.87500   -10.32014     2.24537
   290   2    -5.50000   -11.11399    -2.24537
   291   1     8.25000    -9.52628     0.00000
   292   2     6.87500   -10.32014     2.24537
   293   2     5.50000    -1.58771    11.22683
   294   2     4.12500    -3.96928    11.22683
   295   1    -1.37500     5.55700    11.22683
   296   1     1.37500    -5.55700   -11.22683
   297   2    -1.37500    -5.55700   -11.22683
   298   2     4.12500     3.96928   -11.22683
   299   1    11.00000     4.76314     0.00000
   300   3    11.00000     1.58771    -4.49073
   301   1     1.37500    11.90785     0.00000
   302   1     4.12500    10.32014     4.49073
   303   1     6.87500     8.73242    -4.49073
   304   2    -9.62500     7.14471     0.00000
   305   1    -4.12500    10.32014     4.49073
   306   2    -6.87500     8.73242    -4.49073
   307   1   -11.00000    -4.76314     0.00000
   308   3   -11.00000    -1.58771     4.49073
   309   3   -11.00000     1.58771    -4.49073
   310   3    -1.37500   -11.90785     0.00000
   311   2    -6.87500    -8.73242     4.49073
   312   2    -4.12500   -10.32014    -4.49073
   313   1     9.62500    -7.14471     0.00000
   314   1     6.87500    -8.73242     4.49073
   315   2     4.12500   -10.32014    -4.49073
   316   3     4.12500     0.79386    11.22683
   317   3     1.37500    -3.96928    11.22683
   318   2     2.75000    -3.17543   -11.22683
   319   2    -2.75000    -3.17543   -11.22683
   320   2     1.37500     3.96928   -11.22683
   321   1     9.62500     7.14471     0.00000
   322   2     9.62500    -2.38157     6.73610
   323   2     9.62500     2.38157    -6.73610
   324   2    -1.37500    11.90785     0.00000
   325   3     2.75000     9.52628     6.73610
   326   2     6.87500     7.14471    -6.73610
   327   1   -11.00000     4.76314     0.00000
   328   1    -2.75000     9.52628     6.73610
   329   2    -6.87500     7.14471    -6.73610
   330   1    -9.62500    -7.14471     0.00000
   331   1    -9.62500    -2.38157     6.73610
   332   1    -9.62500     2.38157    -6.73610
   333   3     1.37500   -11.90785     0.00000
   334   1    -6.87500    -7.14471     6.73610
   335   2    -2.75000    -9.52628    -6.73610
   336   1    11.00000    -4.76314     0.00000
   337   2     6.87500    -7.14471     6.73610
   338   2     2.75000    -9.52628    -6.73610
   339   1    -1.37500    -3.96928    11.22683
   340   2    -4.12500     0.79386    11.22683
   341   2    -1.37500     3.96928   -11.22683
   342   1     8.25000     9.52628     0.00000
   343   2     8.25000    -3.17543     8.98146
   344   3     8.25000     3.17543    -8.98146
   345   2    -4.12500    11.90785     0.00000
   346   1     1.37500     8.73242     8.98146
   347   2     6.87500     5.55700    -8.98146
   348   2   -12.37500     2.38157     0.00000
   349   2    -1.37500     8.73242     8.98146
   350   3    -6.87500     5.55700    -8.98146
   351   3    -8.25000    -9.52628     0.00000
   352   1    -8.25000    -3.17543     8.98146
   353   2    -8.25000     3.17543    -8.98146
   354   3     4.12500   -11.90785     0.00000
   355   2    -6.87500    -5.55700     8.98146
   356   3    -1.37500    -8.73242    -8.98146
   357   2     6.87500    -5.55700     8.98146
   358   1     1.37500    -8.73242    -8.98146
   359   2     1.37500     5.55700    11.22683
   360   2    -4.12500    -3.96928    11.22683
   361   2    -5.50000    -1.58771    11.22683
   362   1     5.50000     1.58771   -11.22683
   363   2    -5.50000     1.58771   -11.22683
   364   3     2.75000    11.11399     2.24537
   365   1    -8.25000     7.93857    -2.24537
   366   2   -11.00000    -3.17543     2.24537
   367   1    -2.75000   -11.11399    -2.24537
   368   2     8.25000    -7.93857     2.24537
   369   1     9.62500     3.96928    -4.49073
   370   1    -8.25000     6.35085    -4.49073
   371   2    -9.62500    -3.96928     4.49073
   372   2    -1.37500   -10.32014    -4.49073
   373   2     8.25000    -6.35085     4.49073
   374   3     0.00000    -1.58771    11.22683
   375   1    -1.37500    -0.79386   -11.22683
   376   2     0.00000     9.52628     6.73610
   377   2    -8.25000     4.76314    -6.73610
   378   1    -8.25000    -4.76314     6.73610
   379   3     0.00000    -9.52628    -6.73610
   380   3     8.25000    -4.76314     6.73610
   381   2    -2.75000    -1.58771    11.22683
   382   2    -2.75000     1.58771   -11.22683
   383   3    11.00000     1.58771     2.24537
   384   3     4.12500    10.32014    -2.24537
   385   2    -6.87500     8.73242     2.24537
   386   2   -11.00000    -1.58771    -2.24537
   387   2    -4.12500   -10.32014     2.24537
   388   1     6.87500    -8.73242    -2.24537
   389   2     9.62500     0.79386     4.49073
   390   1     4.12500     8.73242    -4.49073
   391   3    -5.50000     7.93857     4.49073
   392   2    -9.62500    -0.79386    -4.49073
   393   1    -4.12500    -8.73242     4.49073
   394   1     5.50000    -7.93857    -4.49073
   395   3     8.25000    -0.00000     6.73610
   396   2     4.12500     7.14471    -6.73610
   397   2    -8.25000    -0.00000    -6.73610
   398   1    -4.12500    -7.14471     6.73610
   399   1     6.87500    -0.79386     8.98146
   400   1    -2.75000     6.35085     8.98146
   401   1    -6.87500     0.79386    -8.98146
   402   2    -4.12500    -5.55700     8.98146
   403   2     2.75000    -6.35085    -8.98146
   404   3     9.62500     5.55700    -2.24537
   405   2     0.00000    11.11399     2.24537
   406   2    -9.62500     5.55700    -2.24537
   407   2    -9.62500    -5.55700     2.24537
   408   2     0.00000   -11.11399    -2.24537
   409   1     9.62500    -5.55700     2.24537
   410   2     1.37500    -0.79386   -11.22683
   411   2     8.25000     6.35085    -4.49073
   412   2    -1.37500    10.32014     4.49073
   413   3    -9.62500     3.96928    -4.49073
   414   3    -8.25000    -6.35085     4.49073
   415   3     1.37500   -10.32014    -4.49073
   416   2     9.62500    -3.96928     4.49073
   417   2    -1.37500     0.79386    11.22683
   418   2     0.00000     1.58771   -11.22683
   419   2     9.62500     3.96928     2.24537
   420   2     1.37500    10.32014    -2.24537
   421   2    -8.25000     6.35085     2.24537
   422   2    -9.62500    -3.96928    -2.24537
   423   3    -1.37500   -10.32014     2.24537
   424   2     8.25000    -6.35085    -2.24537
   425   2     8.25000     3.17543     4.49073
   426   1     1.37500     8.73242    -4.49073
   427   3    -6.87500     5.55700     4.49073
   428   2    -8.25000    -3.17543    -4.49073
   429   3    -1.37500    -8.73242     4.49073
   430   2     6.87500    -5.55700    -4.49073
   431   2     6.87500     2.38157     6.73610
   432   2     1.37500     7.14471    -6.73610
   433   2    -5.50000     4.76314     6.73610
   434   2    -6.87500    -2.38157    -6.73610
   435   1    -1.37500    -7.14471     6.73610
   436   2     5.50000    -4.76314    -6.73610
   437   3    -4.12500     3.96928     8.98146
   438   3    -5.50000    -1.58771    -8.98146
   439   2    -1.37500    -5.55700     8.98146
   440   1     4.12500    -3.96928    -8.98146
   441   2     8.25000     7.93857    -2.24537
   442   3    -2.75000    11.11399     2.24537
   443   1   -11.00000     3.17543    -2.24537
   444   3    -8.25000    -7.93857     2.24537
   445   2     2.75000   -11.11399    -2.24537
   446   2    11.00000    -3.17543     2.24537
   447   3     0.00000     3.17543    11.22683
   448   2     2.75000     1.58771   -11.22683
   449   2     8.25000     6.35085     2.24537
   450   2    -1.37500    10.32014    -2.24537
   451   3    -9.62500     3.96928     2.24537
   452   3    -8.25000    -6.35085    -2.24537
   453   2     1.37500   -10.32014     2.24537
   454   2     9.62500    -3.96928    -2.24537
   455   2     6.87500     5.55700     4.49073
   456   2    -8.25000     3.17543     4.49073
   457   2    -6.87500    -5.55700    -4.49073
   458   1     8.25000    -3.17543    -4.49073
   459   1     5.50000     4.76314     6.73610
   460   2    -1.37500     7.14471    -6.73610
   461   2    -6.87500     2.38157     6.73610
   462   1    -5.50000    -4.76314    -6.73610
   463   1     1.37500    -7.14471     6.73610
   464   2     6.87500    -2.38157    -6.73610
   465   2     4.12500     3.96928     8.98146
   466   2    -1.37500     5.55700    -8.98146
   467   2    -5.50000     1.58771     8.98146
   468   2    -4.12500    -3.96928    -8.98146
   469   1     1.37500    -5.55700     8.98146
   470   2     5.50000    -1.58771    -8.98146
   471   1   -11.00000     1.58771     2.24537
   472   1    -6.87500    -8.73242    -2.24537
   473   3     4.12500   -10.32014     2.24537
   474   1    11.00000    -1.58771    -2.24537
   475   2     5.50000     7.93857     4.49073
   476   3    -4.12500     8.73242    -4.49073
   477   2    -9.62500     0.79386     4.49073
   478   2    -5.50000    -7.93857    -4.49073
   479   2     4.12500     7.14471     6.73610
   480   2    -4.12500     7.14471    -6.73610
   481   2    -4.12500    -7.14471    -6.73610
   482   3     4.12500    -7.14471     6.73610
   483   3     8.25000    -0.00000    -6.73610
   484   2     2.75000     6.35085     8.98146
   485   1    -4.12500     5.55700    -8.98146
   486   2    -6.87500    -0.79386     8.98146
   487   1    -2.75000    -6.35085    -8.98146
   488   3     4.12500    -5.55700     8.98146
   489   1     6.87500     0.79386    -8.98146
   490   2     8.25000    14.28942     0.00000
   491   2    -8.25000    14.28942     0.00000
   492   2   -16.50000    -0.00000     0.00000
   493   2    -8.25000   -14.28942     0.00000
   494   3     8.25000   -14.28942     0.00000
   495   1     8.25000    -4.76314    13.47219
   496   2     0.00000     9.52628    13.47219
   497   2    -8.25000    -4.76314    13.47219
   498   1     0.00000    -9.52628   -13.47219
   499   3     8.25000     4.76314   -13.47219
   500   1    15.12500     2.38157     0.00000
   501   1    15.12500    -0.79386     2.24537
   502   2    15.12500     0.79386    -2.24537
   503   2     6.87500    13.49556     2.24537
   504   2     8.25000    12.70171    -2.24537
   505   1    -9.62500    11.90785     0.00000
   506   1    -6.87500    13.49556     2.24537
   507   2    -8.25000    12.70171    -2.24537
   508   3   -15.12500    -2.38157     0.00000
   509   2   -15.12500    -0.79386     2.24537
   510   2   -15.12500     0.79386    -2.24537
   511   1    -5.50000   -14.28942     0.00000
   512   1    -8.25000   -12.70171     2.24537
   513   3    -6.87500   -13.49556    -2.24537
   514   3     9.62500   -11.90785     0.00000
   515   2     8.25000   -12.70171     2.24537
   516   3     6.87500   -13.49556    -2.24537
   517   2     6.87500    -2.38157    13.47219
   518   2    -1.37500     7.14471    13.47219
   519   3     1.37500    -7.14471   -13.47219
   520   3    -1.37500    -7.14471   -13.47219
   521   2     5.50000     4.76314   -13.47219
   522   2    13.75000     4.76314     0.00000
   523   1    13.75000    -1.58771     4.49073
   524   2    13.75000     1.58771    -4.49073
   525   3     2.75000    14.28942     0.00000
   526   2     5.50000    12.70171     4.49073
   527   1     8.25000    11.11399    -4.49073
   528   2   -11.00000     9.52628     0.00000
   529   1    -5.50000    12.70171     4.49073
   530   1   -13.75000    -1.58771     4.49073
   531   3   -13.75000     1.58771    -4.49073
   532   2    -2.75000   -14.28942     0.00000
   533   2    -5.50000   -12.70171    -4.49073
   534   3    11.00000    -9.52628     0.00000
   535   2     8.25000   -11.11399     4.49073
   536   3     5.50000   -12.70171    -4.49073
   537   3     5.50000    -0.00000    13.47219
   538   3     2.75000    -4.76314    13.47219
   539   1    -2.75000     4.76314    13.47219
   540   2     2.75000    -4.76314   -13.47219
   541   2    -2.75000    -4.76314   -13.47219
   542   3     2.75000     4.76314   -13.47219
   543   2    12.37500     7.14471     0.00000
   544   3    12.37500    -2.38157     6.73610
   545   2    12.37500     2.38157    -6.73610
   546   2     0.00000    14.28942     0.00000
   547   1     4.12500    11.90785     6.73610
   548   2     8.25000     9.52628    -6.73610
   549   2   -12.37500     7.14471     0.00000
   550   1    -4.12500    11.90785     6.73610
   551   2    -8.25000     9.52628    -6.73610
   552   2   -12.37500    -7.14471     0.00000
   553   2   -12.37500    -2.38157     6.73610
   554   1   -12.37500     2.38157    -6.73610
   555   2     0.00000   -14.28942     0.00000
   556   2    -8.25000    -9.52628     6.73610
   557   1    -4.12500   -11.90785    -6.73610
   558   3    12.37500    -7.14471     0.00000
   559   2     8.25000    -9.52628     6.73610
   560   3     4.12500   -11.90785    -6.73610
   561   1     4.12500     2.38157    13.47219
   562   3     0.00000    -4.76314    13.47219
   563   2    -4.12500     2.38157    13.47219
   564   1     4.12500    -2.38157   -13.47219
   565   2     0.00000     4.76314   -13.47219
   566   1    11.00000     9.52628     0.00000
   567   2    11.00000     3.17543    -8.98146
   568   2    -2.75000    14.28942     0.00000
   569   2     2.75000    11.11399     8.98146
   570   3     8.25000     7.93857    -8.98146
   571   2   -13.75000     4.76314     0.00000
   572   3    -2.75000    11.11399     8.98146
   573   1    -8.25000     7.93857    -8.98146
   574   2   -11.00000    -9.52628     0.00000
   575   2   -11.00000    -3.17543     8.98146
   576   3   -11.00000     3.17543    -8.98146
   577   2     2.75000   -14.28942     0.00000
   578   1    -8.25000    -7.93857     8.98146
   579   3    -2.75000   -11.11399    -8.98146
   580   1     8.25000    -7.93857     8.98146
   581   3     2.75000   -11.11399    -8.98146
   582   1    -2.75000    -4.76314    13.47219
   583   2    -5.50000    -0.00000    13.47219
   584   1     5.50000    -0.00000   -13.47219
   585   2    -5.50000    -0.00000   -13.47219
   586   3    -2.75000     4.76314   -13.47219
   587   2     9.62500    11.90785     0.00000
   588   2     9.62500    -3.96928    11.22683
   589   3     9.62500     3.96928   -11.22683
   590   2     1.37500    10.32014    11.22683
   591   2     8.25000     6.35085   -11.22683
   592   2   -15.12500     2.38157     0.00000
   593   2    -8.25000     6.35085   -11.22683
   594   3    -9.62500   -11.90785     0.00000
   595   2    -9.62500    -3.96928    11.22683
   596   1    -9.62500     3.96928   -11.22683
   597   1     5.50000   -14.28942     0.00000
   598   2    -8.25000    -6.35085    11.22683
   599   1    -1.37500   -10.32014   -11.22683
   600   2    15.12500    -2.38157     0.00000
   601   3     8.25000    -6.35085    11.22683
   602   2     1.37500   -10.32014   -11.22683
   603   2     1.37500     7.14471    13.47219
   604   2    -5.50000    -4.76314    13.47219
   605   2    -6.87500    -2.38157    13.47219
   606   1     6.87500     2.38157   -13.47219
   607   1    -6.87500     2.38157   -13.47219
   608   2    -5.50000     4.76314   -13.47219
   609   1    13.75000     3.17543    -2.24537
   610   2    -9.62500    10.32014    -2.24537
   611   2   -13.75000    -3.17543     2.24537
   612   2    -4.12500   -13.49556    -2.24537
   613   2     9.62500   -10.32014     2.24537
   614   2     0.00000    -4.76314   -13.47219
   615   2    12.37500     3.96928    -4.49073
   616   2     2.75000    12.70171     4.49073
   617   2    -9.62500     8.73242    -4.49073
   618   2   -12.37500    -3.96928     4.49073
   619   2    -2.75000   -12.70171    -4.49073
   620   2     9.62500    -8.73242     4.49073
   621   3     1.37500    -2.38157    13.47219
   622   3    -1.37500    -2.38157   -13.47219
   623   1    11.00000     4.76314    -6.73610
   624   2     1.37500    11.90785     6.73610
   625   2    -9.62500     7.14471    -6.73610
   626   1   -11.00000    -4.76314     6.73610
   627   1    -1.37500   -11.90785    -6.73610
   628   2     9.62500    -7.14471     6.73610
   629   3    -1.37500    -2.38157    13.47219
   630   2    -2.75000    -0.00000   -13.47219
   631   1     9.62500     5.55700    -8.98146
   632   3     0.00000    11.11399     8.98146
   633   2    -9.62500     5.55700    -8.98146
   634   2    -9.62500    -5.55700     8.98146