LAMMPS DATA FOR MEAM SIMULATION

   3997   atoms
      3   atom types

  -33.82   33.82   xlo xhi
  -33.82   33.82   ylo yhi
  -33.82   33.82   zlo zhi

 Atoms

     1   2     0.00000     0.00000    -0.00000
     2   3     2.75000     0.00000    -0.00000
     3   2     1.37500     2.38157    -0.00000
     4   2    -1.37500     2.38157    -0.00000
     5   1    -2.75000     0.00000    -0.00000
     6   3    -1.37500    -2.38157    -0.00000
     7   2     1.37500    -2.38157    -0.00000
     8   2     1.37500    -0.79386     2.24537
     9   2     0.00000     1.58771     2.24537
    10   2    -1.37500    -0.79386     2.24537
    11   2     0.00000    -1.58771    -2.24537
    12   1     1.37500     0.79386    -2.24537
    13   3    -1.37500     0.79386    -2.24537
    14   1     5.50000     0.00000    -0.00000
    15   1     2.75000     4.76314    -0.00000
    16   3    -2.75000     4.76314    -0.00000
    17   2    -5.50000     0.00000    -0.00000
    18   2    -2.75000    -4.76314    -0.00000
    19   3     2.75000    -4.76314    -0.00000
    20   2     2.75000    -1.58771     4.49073
    21   2     0.00000     3.17543     4.49073
    22   2    -2.75000    -1.58771     4.49073
    23   2     0.00000    -3.17543    -4.49073
    24   3     2.75000     1.58771    -4.49073
    25   3    -2.75000     1.58771    -4.49073
    26   1     4.12500     2.38157    -0.00000
    27   2     4.12500    -0.79386     2.24537
    28   3     4.12500     0.79386    -2.24537
    29   1     0.00000     4.76314    -0.00000
    30   1     1.37500     3.96928     2.24537
    31   2     2.75000     3.17543    -2.24537
    32   1    -4.12500     2.38157    -0.00000
    33   2    -1.37500     3.96928     2.24537
    34   1    -2.75000     3.17543    -2.24537
    35   1    -4.12500    -2.38157    -0.00000
    36   1    -4.12500    -0.79386     2.24537
    37   1    -4.12500     0.79386    -2.24537
    38   3     0.00000    -4.76314    -0.00000
    39   2    -2.75000    -3.17543     2.24537
    40   2    -1.37500    -3.96928    -2.24537
    41   3     4.12500    -2.38157    -0.00000
    42   2     2.75000    -3.17543     2.24537
    43   2     1.37500    -3.96928    -2.24537
    44   3     1.37500     0.79386     4.49073
    45   2     0.00000    -1.58771     4.49073
    46   1    -1.37500     0.79386     4.49073
    47   2     1.37500    -0.79386    -4.49073
    48   1    -1.37500    -0.79386    -4.49073
    49   2     0.00000     1.58771    -4.49073
    50   3     2.75000     1.58771     2.24537
    51   3     0.00000     3.17543    -2.24537
    52   1    -2.75000     1.58771     2.24537
    53   3    -2.75000    -1.58771    -2.24537
    54   2     0.00000    -3.17543     2.24537
    55   2     2.75000    -1.58771    -2.24537
    56   2     8.25000     0.00000    -0.00000
    57   1     4.12500     7.14471    -0.00000
    58   1    -4.12500     7.14471    -0.00000
    59   1    -8.25000     0.00000    -0.00000
    60   1    -4.12500    -7.14471    -0.00000
    61   3     4.12500    -7.14471    -0.00000
    62   1     4.12500    -2.38157     6.73610
    63   2     0.00000     4.76314     6.73610
    64   2    -4.12500    -2.38157     6.73610
    65   3     0.00000    -4.76314    -6.73610
    66   2     4.12500     2.38157    -6.73610
    67   3    -4.12500     2.38157    -6.73610
    68   3     6.87500     2.38157    -0.00000
    69   1     6.87500    -0.79386     2.24537
    70   3     6.87500     0.79386    -2.24537
    71   3     1.37500     7.14471    -0.00000
    72   1     2.75000     6.35085     2.24537
    73   3     4.12500     5.55700    -2.24537
    74   1    -5.50000     4.76314    -0.00000
    75   3    -2.75000     6.35085     2.24537
    76   1    -4.12500     5.55700    -2.24537
    77   3    -6.87500    -2.38157    -0.00000
    78   1    -6.87500    -0.79386     2.24537
    79   1    -6.87500     0.79386    -2.24537
    80   1    -1.37500    -7.14471    -0.00000
    81   3    -4.12500    -5.55700     2.24537
    82   1    -2.75000    -6.35085    -2.24537
    83   2     5.50000    -4.76314    -0.00000
    84   2     4.12500    -5.55700     2.24537
    85   3     2.75000    -6.35085    -2.24537
    86   2     2.75000     0.00000     6.73610
    87   3     1.37500    -2.38157     6.73610
    88   2    -1.37500     2.38157     6.73610
    89   3     1.37500    -2.38157    -6.73610
    90   2    -1.37500    -2.38157    -6.73610
    91   3     1.37500     2.38157    -6.73610
    92   1     5.50000     4.76314    -0.00000
    93   2     5.50000    -1.58771     4.49073
    94   3     5.50000     1.58771    -4.49073
    95   2    -1.37500     7.14471    -0.00000
    96   3     1.37500     5.55700     4.49073
    97   1     4.12500     3.96928    -4.49073
    98   2    -6.87500     2.38157    -0.00000
    99   2    -1.37500     5.55700     4.49073
   100   2    -4.12500     3.96928    -4.49073
   101   3    -5.50000    -4.76314    -0.00000
   102   2    -5.50000    -1.58771     4.49073
   103   1    -5.50000     1.58771    -4.49073
   104   2     1.37500    -7.14471    -0.00000
   105   2    -4.12500    -3.96928     4.49073
   106   1    -1.37500    -5.55700    -4.49073
   107   1     6.87500    -2.38157    -0.00000
   108   2     4.12500    -3.96928     4.49073
   109   1     1.37500    -5.55700    -4.49073
   110   1     1.37500     2.38157     6.73610
   111   1    -1.37500    -2.38157     6.73610
   112   2    -2.75000     0.00000     6.73610
   113   2     2.75000     0.00000    -6.73610
   114   2    -2.75000     0.00000    -6.73610
   115   2    -1.37500     2.38157    -6.73610
   116   1     5.50000     3.17543    -2.24537
   117   2     0.00000     6.35085     2.24537
   118   3    -5.50000     3.17543    -2.24537
   119   2    -5.50000    -3.17543     2.24537
   120   1     0.00000    -6.35085    -2.24537
   121   2     5.50000    -3.17543     2.24537
   122   2     0.00000     0.00000     6.73610
   123   2     0.00000     0.00000    -6.73610
   124   1     5.50000     1.58771     2.24537
   125   3     1.37500     5.55700    -2.24537
   126   2    -4.12500     3.96928     2.24537
   127   1    -5.50000    -1.58771    -2.24537
   128   1    -1.37500    -5.55700     2.24537
   129   1     4.12500    -3.96928    -2.24537
   130   1     4.12500     0.79386     4.49073
   131   2     1.37500     3.96928    -4.49073
   132   2    -2.75000     3.17543     4.49073
   133   3    -4.12500    -0.79386    -4.49073
   134   2    -1.37500    -3.96928     4.49073
   135   1     2.75000    -3.17543    -4.49073
   136   3     4.12500     3.96928     2.24537
   137   2    -1.37500     5.55700    -2.24537
   138   3    -5.50000     1.58771     2.24537
   139   2    -4.12500    -3.96928    -2.24537
   140   1     1.37500    -5.55700     2.24537
   141   2     5.50000    -1.58771    -2.24537
   142   3     2.75000     3.17543     4.49073
   143   1    -1.37500     3.96928    -4.49073
   144   1    -4.12500     0.79386     4.49073
   145   2    -2.75000    -3.17543    -4.49073
   146   2     1.37500    -3.96928     4.49073
   147   1     4.12500    -0.79386    -4.49073
   148   2    11.00000     0.00000    -0.00000
   149   3     5.50000     9.52628    -0.00000
   150   1    -5.50000     9.52628    -0.00000
   151   2   -11.00000     0.00000    -0.00000
   152   1    -5.50000    -9.52628    -0.00000
   153   1     5.50000    -9.52628    -0.00000
   154   1     5.50000    -3.17543     8.98146
   155   2     0.00000     6.35085     8.98146
   156   2    -5.50000    -3.17543     8.98146
   157   2     0.00000    -6.35085    -8.98146
   158   3     5.50000     3.17543    -8.98146
   159   1    -5.50000     3.17543    -8.98146
   160   3     9.62500     2.38157    -0.00000
   161   2     9.62500    -0.79386     2.24537
   162   2     9.62500     0.79386    -2.24537
   163   1     2.75000     9.52628    -0.00000
   164   1     4.12500     8.73242     2.24537
   165   2     5.50000     7.93857    -2.24537
   166   2    -6.87500     7.14471    -0.00000
   167   1    -4.12500     8.73242     2.24537
   168   1    -5.50000     7.93857    -2.24537
   169   1    -9.62500    -2.38157    -0.00000
   170   2    -9.62500    -0.79386     2.24537
   171   1    -9.62500     0.79386    -2.24537
   172   3    -2.75000    -9.52628    -0.00000
   173   2    -5.50000    -7.93857     2.24537
   174   3    -4.12500    -8.73242    -2.24537
   175   1     6.87500    -7.14471    -0.00000
   176   3     5.50000    -7.93857     2.24537
   177   2     4.12500    -8.73242    -2.24537
   178   2     4.12500    -0.79386     8.98146
   179   3     2.75000    -3.17543     8.98146
   180   2    -1.37500     3.96928     8.98146
   181   2     1.37500    -3.96928    -8.98146
   182   1    -1.37500    -3.96928    -8.98146
   183   2     2.75000     3.17543    -8.98146
   184   2     8.25000     4.76314    -0.00000
   185   1     8.25000    -1.58771     4.49073
   186   3     8.25000     1.58771    -4.49073
   187   2     0.00000     9.52628    -0.00000
   188   1     2.75000     7.93857     4.49073
   189   2     5.50000     6.35085    -4.49073
   190   3    -8.25000     4.76314    -0.00000
   191   3    -2.75000     7.93857     4.49073
   192   3    -5.50000     6.35085    -4.49073
   193   3    -8.25000    -4.76314    -0.00000
   194   3    -8.25000    -1.58771     4.49073
   195   3    -8.25000     1.58771    -4.49073
   196   3     0.00000    -9.52628    -0.00000
   197   2    -5.50000    -6.35085     4.49073
   198   1    -2.75000    -7.93857    -4.49073
   199   2     8.25000    -4.76314    -0.00000
   200   2     5.50000    -6.35085     4.49073
   201   2     2.75000    -7.93857    -4.49073
   202   2     2.75000     1.58771     8.98146
   203   3     0.00000    -3.17543     8.98146
   204   1    -2.75000     1.58771     8.98146
   205   2     2.75000    -1.58771    -8.98146
   206   2    -2.75000    -1.58771    -8.98146
   207   3     0.00000     3.17543    -8.98146
   208   2     6.87500     7.14471    -0.00000
   209   1     6.87500    -2.38157     6.73610
   210   3     6.87500     2.38157    -6.73610
   211   2    -2.75000     9.52628    -0.00000
   212   1     1.37500     7.14471     6.73610
   213   2     5.50000     4.76314    -6.73610
   214   2    -9.62500     2.38157    -0.00000
   215   2    -1.37500     7.14471     6.73610
   216   2    -5.50000     4.76314    -6.73610
   217   2    -6.87500    -7.14471    -0.00000
   218   3    -6.87500    -2.38157     6.73610
   219   1    -6.87500     2.38157    -6.73610
   220   3     2.75000    -9.52628    -0.00000
   221   3    -5.50000    -4.76314     6.73610
   222   3    -1.37500    -7.14471    -6.73610
   223   1     9.62500    -2.38157    -0.00000
   224   3     5.50000    -4.76314     6.73610
   225   1     1.37500    -7.14471    -6.73610
   226   3     1.37500     3.96928     8.98146
   227   2    -2.75000    -3.17543     8.98146
   228   3    -4.12500    -0.79386     8.98146
   229   1     4.12500     0.79386    -8.98146
   230   2    -4.12500     0.79386    -8.98146
   231   1    -2.75000     3.17543    -8.98146
   232   3     8.25000     3.17543    -2.24537
   233   2     1.37500     8.73242     2.24537
   234   3    -6.87500     5.55700    -2.24537
   235   2    -8.25000    -3.17543     2.24537
   236   3    -1.37500    -8.73242    -2.24537
   237   1     6.87500    -5.55700     2.24537
   238   1     1.37500    -0.79386     8.98146
   239   3     0.00000    -1.58771    -8.98146
   240   2     6.87500     3.96928    -4.49073
   241   2     0.00000     7.93857     4.49073
   242   3    -6.87500     3.96928    -4.49073
   243   2    -6.87500    -3.96928     4.49073
   244   2     0.00000    -7.93857    -4.49073
   245   3     6.87500    -3.96928     4.49073
   246   1    -1.37500    -0.79386     8.98146
   247   2    -1.37500     0.79386    -8.98146
   248   3     8.25000     1.58771     2.24537
   249   3     2.75000     7.93857    -2.24537
   250   3    -5.50000     6.35085     2.24537
   251   1    -8.25000    -1.58771    -2.24537
   252   2    -2.75000    -7.93857     2.24537
   253   1     5.50000    -6.35085    -2.24537
   254   3     6.87500     0.79386     4.49073
   255   2     2.75000     6.35085    -4.49073
   256   2    -4.12500     5.55700     4.49073
   257   3    -6.87500    -0.79386    -4.49073
   258   3    -2.75000    -6.35085     4.49073
   259   2     4.12500    -5.55700    -4.49073
   260   3     5.50000     0.00000     6.73610
   261   1     2.75000     4.76314    -6.73610
   262   2    -2.75000     4.76314     6.73610
   263   3    -5.50000     0.00000    -6.73610
   264   2    -2.75000    -4.76314     6.73610
   265   2     2.75000    -4.76314    -6.73610
   266   1     6.87500     5.55700    -2.24537
   267   2    -1.37500     8.73242     2.24537
   268   1    -8.25000     3.17543    -2.24537
   269   2    -6.87500    -5.55700     2.24537
   270   2     1.37500    -8.73242    -2.24537
   271   1     8.25000    -3.17543     2.24537
   272   1     0.00000     1.58771     8.98146
   273   1     1.37500     0.79386    -8.98146
   274   2     6.87500     3.96928     2.24537
   275   3     0.00000     7.93857    -2.24537
   276   2    -6.87500     3.96928     2.24537
   277   3    -6.87500    -3.96928    -2.24537
   278   1     0.00000    -7.93857     2.24537
   279   3     6.87500    -3.96928    -2.24537
   280   2     5.50000     3.17543     4.49073
   281   1     0.00000     6.35085    -4.49073
   282   3    -5.50000     3.17543     4.49073
   283   3    -5.50000    -3.17543    -4.49073
   284   2     0.00000    -6.35085     4.49073
   285   1     5.50000    -3.17543    -4.49073
   286   1     4.12500     2.38157     6.73610
   287   2     0.00000     4.76314    -6.73610
   288   3    -4.12500     2.38157     6.73610
   289   2    -4.12500    -2.38157    -6.73610
   290   2     0.00000    -4.76314     6.73610
   291   1     4.12500    -2.38157    -6.73610
   292   2     5.50000     6.35085     2.24537
   293   1    -2.75000     7.93857    -2.24537
   294   2    -8.25000     1.58771     2.24537
   295   1    -5.50000    -6.35085    -2.24537
   296   2     2.75000    -7.93857     2.24537
   297   2     8.25000    -1.58771    -2.24537
   298   3     4.12500     5.55700     4.49073
   299   3    -2.75000     6.35085    -4.49073
   300   3    -6.87500     0.79386     4.49073
   301   3    -4.12500    -5.55700    -4.49073
   302   2     2.75000    -6.35085     4.49073
   303   2     6.87500    -0.79386    -4.49073
   304   1     2.75000     4.76314     6.73610
   305   3    -2.75000     4.76314    -6.73610
   306   3    -5.50000     0.00000     6.73610
   307   2    -2.75000    -4.76314    -6.73610
   308   1     2.75000    -4.76314     6.73610
   309   1     5.50000     0.00000    -6.73610
   310   1    13.75000     0.00000    -0.00000
   311   1     6.87500    11.90785    -0.00000
   312   2    -6.87500    11.90785    -0.00000
   313   2   -13.75000     0.00000    -0.00000
   314   2    -6.87500   -11.90785    -0.00000
   315   2     6.87500   -11.90785    -0.00000
   316   1     6.87500    -3.96928    11.22683
   317   2     0.00000     7.93857    11.22683
   318   2    -6.87500    -3.96928    11.22683
   319   3     0.00000    -7.93857   -11.22683
   320   3     6.87500     3.96928   -11.22683
   321   3    -6.87500     3.96928   -11.22683
   322   2    12.37500     2.38157    -0.00000
   323   1    12.37500    -0.79386     2.24537
   324   2    12.37500     0.79386    -2.24537
   325   2     4.12500    11.90785    -0.00000
   326   2     5.50000    11.11399     2.24537
   327   1     6.87500    10.32014    -2.24537
   328   1    -8.25000     9.52628    -0.00000
   329   3    -5.50000    11.11399     2.24537
   330   2    -6.87500    10.32014    -2.24537
   331   3   -12.37500    -2.38157    -0.00000
   332   1   -12.37500    -0.79386     2.24537
   333   3   -12.37500     0.79386    -2.24537
   334   2    -4.12500   -11.90785    -0.00000
   335   1    -6.87500   -10.32014     2.24537
   336   1    -5.50000   -11.11399    -2.24537
   337   2     8.25000    -9.52628    -0.00000
   338   2     6.87500   -10.32014     2.24537
   339   2     5.50000   -11.11399    -2.24537
   340   3     5.50000    -1.58771    11.22683
   341   2     4.12500    -3.96928    11.22683
   342   2    -1.37500     5.55700    11.22683
   343   2     1.37500    -5.55700   -11.22683
   344   2    -1.37500    -5.55700   -11.22683
   345   1     4.12500     3.96928   -11.22683
   346   3    11.00000     4.76314    -0.00000
   347   2    11.00000    -1.58771     4.49073
   348   3    11.00000     1.58771    -4.49073
   349   3     1.37500    11.90785    -0.00000
   350   2     4.12500    10.32014     4.49073
   351   2     6.87500     8.73242    -4.49073
   352   3    -9.62500     7.14471    -0.00000
   353   1    -4.12500    10.32014     4.49073
   354   1    -6.87500     8.73242    -4.49073
   355   3   -11.00000    -4.76314    -0.00000
   356   2   -11.00000    -1.58771     4.49073
   357   2   -11.00000     1.58771    -4.49073
   358   2    -1.37500   -11.90785    -0.00000
   359   2    -6.87500    -8.73242     4.49073
   360   2    -4.12500   -10.32014    -4.49073
   361   2     9.62500    -7.14471    -0.00000
   362   3     6.87500    -8.73242     4.49073
   363   3     4.12500   -10.32014    -4.49073
   364   2     4.12500     0.79386    11.22683
   365   2     1.37500    -3.96928    11.22683
   366   2    -2.75000     3.17543    11.22683
   367   2     2.75000    -3.17543   -11.22683
   368   2    -2.75000    -3.17543   -11.22683
   369   2     1.37500     3.96928   -11.22683
   370   3     9.62500     7.14471    -0.00000
   371   2     9.62500    -2.38157     6.73610
   372   2     9.62500     2.38157    -6.73610
   373   1    -1.37500    11.90785    -0.00000
   374   3     2.75000     9.52628     6.73610
   375   2     6.87500     7.14471    -6.73610
   376   1   -11.00000     4.76314    -0.00000
   377   2    -2.75000     9.52628     6.73610
   378   1    -6.87500     7.14471    -6.73610
   379   2    -9.62500    -7.14471    -0.00000
   380   3    -9.62500    -2.38157     6.73610
   381   2    -9.62500     2.38157    -6.73610
   382   3     1.37500   -11.90785    -0.00000
   383   3    -6.87500    -7.14471     6.73610
   384   2    -2.75000    -9.52628    -6.73610
   385   2    11.00000    -4.76314    -0.00000
   386   2     6.87500    -7.14471     6.73610
   387   1     2.75000    -9.52628    -6.73610
   388   3     2.75000     3.17543    11.22683
   389   3    -1.37500    -3.96928    11.22683
   390   1    -4.12500     0.79386    11.22683
   391   3     4.12500    -0.79386   -11.22683
   392   2    -4.12500    -0.79386   -11.22683
   393   2    -1.37500     3.96928   -11.22683
   394   2     8.25000     9.52628    -0.00000
   395   2     8.25000    -3.17543     8.98146
   396   3     8.25000     3.17543    -8.98146
   397   3    -4.12500    11.90785    -0.00000
   398   2     1.37500     8.73242     8.98146
   399   3     6.87500     5.55700    -8.98146
   400   2   -12.37500     2.38157    -0.00000
   401   1    -1.37500     8.73242     8.98146
   402   1    -6.87500     5.55700    -8.98146
   403   2    -8.25000    -9.52628    -0.00000
   404   1    -8.25000    -3.17543     8.98146
   405   3    -8.25000     3.17543    -8.98146
   406   2     4.12500   -11.90785    -0.00000
   407   3    -6.87500    -5.55700     8.98146
   408   2    -1.37500    -8.73242    -8.98146
   409   3    12.37500    -2.38157    -0.00000
   410   1     6.87500    -5.55700     8.98146
   411   2     1.37500    -8.73242    -8.98146
   412   2     1.37500     5.55700    11.22683
   413   1    -4.12500    -3.96928    11.22683
   414   3    -5.50000    -1.58771    11.22683
   415   3     5.50000     1.58771   -11.22683
   416   3    -5.50000     1.58771   -11.22683
   417   2    -4.12500     3.96928   -11.22683
   418   3    11.00000     3.17543    -2.24537
   419   3     2.75000    11.11399     2.24537
   420   2    -8.25000     7.93857    -2.24537
   421   2   -11.00000    -3.17543     2.24537
   422   1    -2.75000   -11.11399    -2.24537
   423   2     8.25000    -7.93857     2.24537
   424   2     2.75000    -1.58771    11.22683
   425   1     0.00000    -3.17543   -11.22683
   426   2     9.62500     3.96928    -4.49073
   427   2     1.37500    10.32014     4.49073
   428   2    -8.25000     6.35085    -4.49073
   429   3    -9.62500    -3.96928     4.49073
   430   2    -1.37500   -10.32014    -4.49073
   431   3     8.25000    -6.35085     4.49073
   432   2     0.00000    -1.58771    11.22683
   433   2    -1.37500    -0.79386   -11.22683
   434   2     8.25000     4.76314    -6.73610
   435   3     0.00000     9.52628     6.73610
   436   1    -8.25000     4.76314    -6.73610
   437   2    -8.25000    -4.76314     6.73610
   438   1     0.00000    -9.52628    -6.73610
   439   3     8.25000    -4.76314     6.73610
   440   2    -2.75000    -1.58771    11.22683
   441   1    -2.75000     1.58771   -11.22683
   442   1    11.00000     1.58771     2.24537
   443   2     4.12500    10.32014    -2.24537
   444   2    -6.87500     8.73242     2.24537
   445   3   -11.00000    -1.58771    -2.24537
   446   2    -4.12500   -10.32014     2.24537
   447   1     6.87500    -8.73242    -2.24537
   448   1     9.62500     0.79386     4.49073
   449   2     4.12500     8.73242    -4.49073
   450   1    -5.50000     7.93857     4.49073
   451   2    -9.62500    -0.79386    -4.49073
   452   2    -4.12500    -8.73242     4.49073
   453   2     5.50000    -7.93857    -4.49073
   454   1     8.25000     0.00000     6.73610
   455   1     4.12500     7.14471    -6.73610
   456   3    -4.12500     7.14471     6.73610
   457   1    -8.25000     0.00000    -6.73610
   458   2    -4.12500    -7.14471     6.73610
   459   2     4.12500    -7.14471    -6.73610
   460   3     6.87500    -0.79386     8.98146
   461   2     4.12500     5.55700    -8.98146
   462   1    -2.75000     6.35085     8.98146
   463   1    -6.87500     0.79386    -8.98146
   464   3    -4.12500    -5.55700     8.98146
   465   2     2.75000    -6.35085    -8.98146
   466   3     9.62500     5.55700    -2.24537
   467   1     0.00000    11.11399     2.24537
   468   2    -9.62500     5.55700    -2.24537
   469   3    -9.62500    -5.55700     2.24537
   470   2     0.00000   -11.11399    -2.24537
   471   1     9.62500    -5.55700     2.24537
   472   3     1.37500     0.79386    11.22683
   473   1     1.37500    -0.79386   -11.22683
   474   2     8.25000     6.35085    -4.49073
   475   3    -1.37500    10.32014     4.49073
   476   1    -9.62500     3.96928    -4.49073
   477   2    -8.25000    -6.35085     4.49073
   478   2     1.37500   -10.32014    -4.49073
   479   3     9.62500    -3.96928     4.49073
   480   3    -1.37500     0.79386    11.22683
   481   3     0.00000     1.58771   -11.22683
   482   1     9.62500     3.96928     2.24537
   483   3     1.37500    10.32014    -2.24537
   484   2    -8.25000     6.35085     2.24537
   485   3    -9.62500    -3.96928    -2.24537
   486   2    -1.37500   -10.32014     2.24537
   487   1     8.25000    -6.35085    -2.24537
   488   1     8.25000     3.17543     4.49073
   489   3     1.37500     8.73242    -4.49073
   490   2    -6.87500     5.55700     4.49073
   491   3    -8.25000    -3.17543    -4.49073
   492   2    -1.37500    -8.73242     4.49073
   493   3     6.87500    -5.55700    -4.49073
   494   2     6.87500     2.38157     6.73610
   495   1     1.37500     7.14471    -6.73610
   496   1    -5.50000     4.76314     6.73610
   497   2    -6.87500    -2.38157    -6.73610
   498   1    -1.37500    -7.14471     6.73610
   499   2     5.50000    -4.76314    -6.73610
   500   2     5.50000     1.58771     8.98146
   501   3     1.37500     5.55700    -8.98146
   502   3    -4.12500     3.96928     8.98146
   503   1    -5.50000    -1.58771    -8.98146
   504   3    -1.37500    -5.55700     8.98146
   505   2     4.12500    -3.96928    -8.98146
   506   2     8.25000     7.93857    -2.24537
   507   2    -2.75000    11.11399     2.24537
   508   2   -11.00000     3.17543    -2.24537
   509   1    -8.25000    -7.93857     2.24537
   510   3     2.75000   -11.11399    -2.24537
   511   1    11.00000    -3.17543     2.24537
   512   3     0.00000     3.17543    11.22683
   513   1     2.75000     1.58771   -11.22683
   514   1     8.25000     6.35085     2.24537
   515   2    -1.37500    10.32014    -2.24537
   516   2    -9.62500     3.96928     2.24537
   517   2    -8.25000    -6.35085    -2.24537
   518   3     1.37500   -10.32014     2.24537
   519   1     9.62500    -3.96928    -2.24537
   520   2     6.87500     5.55700     4.49073
   521   1    -1.37500     8.73242    -4.49073
   522   2    -8.25000     3.17543     4.49073
   523   3    -6.87500    -5.55700    -4.49073
   524   1     1.37500    -8.73242     4.49073
   525   2     8.25000    -3.17543    -4.49073
   526   2     5.50000     4.76314     6.73610
   527   2    -1.37500     7.14471    -6.73610
   528   2    -6.87500     2.38157     6.73610
   529   3    -5.50000    -4.76314    -6.73610
   530   2     1.37500    -7.14471     6.73610
   531   1     6.87500    -2.38157    -6.73610
   532   1     4.12500     3.96928     8.98146
   533   1    -1.37500     5.55700    -8.98146
   534   1    -5.50000     1.58771     8.98146
   535   2    -4.12500    -3.96928    -8.98146
   536   2     1.37500    -5.55700     8.98146
   537   2     5.50000    -1.58771    -8.98146
   538   2     6.87500     8.73242     2.24537
   539   2    -4.12500    10.32014    -2.24537
   540   3   -11.00000     1.58771     2.24537
   541   3    -6.87500    -8.73242    -2.24537
   542   2     4.12500   -10.32014     2.24537
   543   3    11.00000    -1.58771    -2.24537
   544   2     5.50000     7.93857     4.49073
   545   2    -4.12500     8.73242    -4.49073
   546   2    -9.62500     0.79386     4.49073
   547   3    -5.50000    -7.93857    -4.49073
   548   3     4.12500    -8.73242     4.49073
   549   3     9.62500    -0.79386    -4.49073
   550   3     4.12500     7.14471     6.73610
   551   2    -4.12500     7.14471    -6.73610
   552   3    -8.25000     0.00000     6.73610
   553   3    -4.12500    -7.14471    -6.73610
   554   2     4.12500    -7.14471     6.73610
   555   3     8.25000     0.00000    -6.73610
   556   2     2.75000     6.35085     8.98146
   557   3    -4.12500     5.55700    -8.98146
   558   1    -6.87500    -0.79386     8.98146
   559   3    -2.75000    -6.35085    -8.98146
   560   2     4.12500    -5.55700     8.98146
   561   2     6.87500     0.79386    -8.98146
   562   2    16.50000     0.00000    -0.00000
   563   1     8.25000    14.28942    -0.00000
   564   1    -8.25000    14.28942    -0.00000
   565   1   -16.50000     0.00000    -0.00000
   566   1    -8.25000   -14.28942    -0.00000
   567   1     8.25000   -14.28942    -0.00000
   568   1     8.25000    -4.76314    13.47219
   569   3     0.00000     9.52628    13.47219
   570   1    -8.25000    -4.76314    13.47219
   571   1     0.00000    -9.52628   -13.47219
   572   1     8.25000     4.76314   -13.47219
   573   2    -8.25000     4.76314   -13.47219
   574   3    15.12500     2.38157    -0.00000
   575   2    15.12500    -0.79386     2.24537
   576   2    15.12500     0.79386    -2.24537
   577   2     5.50000    14.28942    -0.00000
   578   3     6.87500    13.49556     2.24537
   579   3     8.25000    12.70171    -2.24537
   580   1    -9.62500    11.90785    -0.00000
   581   2    -6.87500    13.49556     2.24537
   582   2    -8.25000    12.70171    -2.24537
   583   2   -15.12500    -2.38157    -0.00000
   584   3   -15.12500    -0.79386     2.24537
   585   2   -15.12500     0.79386    -2.24537
   586   1    -5.50000   -14.28942    -0.00000
   587   2    -8.25000   -12.70171     2.24537
   588   1    -6.87500   -13.49556    -2.24537
   589   1     9.62500   -11.90785    -0.00000
   590   2     8.25000   -12.70171     2.24537
   591   2     6.87500   -13.49556    -2.24537
   592   2     6.87500    -2.38157    13.47219
   593   2     5.50000    -4.76314    13.47219
   594   1    -1.37500     7.14471    13.47219
   595   1     1.37500    -7.14471   -13.47219
   596   1    -1.37500    -7.14471   -13.47219
   597   1     5.50000     4.76314   -13.47219
   598   3    13.75000     4.76314    -0.00000
   599   3    13.75000    -1.58771     4.49073
   600   1    13.75000     1.58771    -4.49073
   601   1     2.75000    14.28942    -0.00000
   602   1     5.50000    12.70171     4.49073
   603   1     8.25000    11.11399    -4.49073
   604   2   -11.00000     9.52628    -0.00000
   605   1    -5.50000    12.70171     4.49073
   606   2    -8.25000    11.11399    -4.49073
   607   2   -13.75000    -4.76314    -0.00000
   608   2   -13.75000    -1.58771     4.49073
   609   2   -13.75000     1.58771    -4.49073
   610   3    -2.75000   -14.28942    -0.00000
   611   2    -8.25000   -11.11399     4.49073
   612   1    -5.50000   -12.70171    -4.49073
   613   3    11.00000    -9.52628    -0.00000
   614   2     8.25000   -11.11399     4.49073
   615   2     5.50000   -12.70171    -4.49073
   616   3     5.50000     0.00000    13.47219
   617   1     2.75000    -4.76314    13.47219
   618   3    -2.75000     4.76314    13.47219
   619   1     2.75000    -4.76314   -13.47219
   620   3    -2.75000    -4.76314   -13.47219
   621   2     2.75000     4.76314   -13.47219
   622   1    12.37500     7.14471    -0.00000
   623   1    12.37500    -2.38157     6.73610
   624   2    12.37500     2.38157    -6.73610
   625   3     0.00000    14.28942    -0.00000
   626   3     4.12500    11.90785     6.73610
   627   2     8.25000     9.52628    -6.73610
   628   2   -12.37500     7.14471    -0.00000
   629   2    -4.12500    11.90785     6.73610
   630   1    -8.25000     9.52628    -6.73610
   631   3   -12.37500    -7.14471    -0.00000
   632   1   -12.37500    -2.38157     6.73610
   633   2   -12.37500     2.38157    -6.73610
   634   2     0.00000   -14.28942    -0.00000