LAMMPS DATA FOR MEAM SIMULATION

   3798   atoms
      3   atom types

  -33.82   33.82   xlo xhi
  -33.82   33.82   ylo yhi
  -33.82   33.82   zlo zhi

 Atoms

     1   3     2.75000     0.00000    -0.00000
     2   2     1.37500     2.38157    -0.00000
     3   2    -1.37500     2.38157    -0.00000
     4   1    -2.75000     0.00000    -0.00000
     5   3    -1.37500    -2.38157    -0.00000
     6   2     1.37500    -2.38157    -0.00000
     7   2     1.37500    -0.79386     2.24537
     8   2     0.00000     1.58771     2.24537
     9   2    -1.37500    -0.79386     2.24537
    10   2     0.00000    -1.58771    -2.24537
    11   1     1.37500     0.79386    -2.24537
    12   3    -1.37500     0.79386    -2.24537
    13   1     5.50000     0.00000    -0.00000
    14   1     2.75000     4.76314    -0.00000
    15   3    -2.75000     4.76314    -0.00000
    16   2    -2.75000    -4.76314    -0.00000
    17   3     2.75000    -4.76314    -0.00000
    18   2     2.75000    -1.58771     4.49073
    19   2     0.00000     3.17543     4.49073
    20   2    -2.75000    -1.58771     4.49073
    21   2     0.00000    -3.17543    -4.49073
    22   3     2.75000     1.58771    -4.49073
    23   3    -2.75000     1.58771    -4.49073
    24   1     4.12500     2.38157    -0.00000
    25   2     4.12500    -0.79386     2.24537
    26   3     4.12500     0.79386    -2.24537
    27   1     1.37500     3.96928     2.24537
    28   2     2.75000     3.17543    -2.24537
    29   1    -4.12500     2.38157    -0.00000
    30   2    -1.37500     3.96928     2.24537
    31   1    -2.75000     3.17543    -2.24537
    32   1    -4.12500    -2.38157    -0.00000
    33   1    -4.12500    -0.79386     2.24537
    34   1    -4.12500     0.79386    -2.24537
    35   2    -2.75000    -3.17543     2.24537
    36   2    -1.37500    -3.96928    -2.24537
    37   3     4.12500    -2.38157    -0.00000
    38   2     2.75000    -3.17543     2.24537
    39   2     1.37500    -3.96928    -2.24537
    40   3     1.37500     0.79386     4.49073
    41   2     0.00000    -1.58771     4.49073
    42   1    -1.37500     0.79386     4.49073
    43   2     1.37500    -0.79386    -4.49073
    44   1    -1.37500    -0.79386    -4.49073
    45   2     0.00000     1.58771    -4.49073
    46   3     2.75000     1.58771     2.24537
    47   3     0.00000     3.17543    -2.24537
    48   1    -2.75000     1.58771     2.24537
    49   3    -2.75000    -1.58771    -2.24537
    50   2     0.00000    -3.17543     2.24537
    51   2     2.75000    -1.58771    -2.24537
    52   2     8.25000     0.00000    -0.00000
    53   1     4.12500     7.14471    -0.00000
    54   1    -4.12500     7.14471    -0.00000
    55   1    -8.25000     0.00000    -0.00000
    56   1    -4.12500    -7.14471    -0.00000
    57   3     4.12500    -7.14471    -0.00000
    58   1     4.12500    -2.38157     6.73610
    59   2    -4.12500    -2.38157     6.73610
    60   3     0.00000    -4.76314    -6.73610
    61   2     4.12500     2.38157    -6.73610
    62   3    -4.12500     2.38157    -6.73610
    63   3     6.87500     2.38157    -0.00000
    64   1     6.87500    -0.79386     2.24537
    65   3     6.87500     0.79386    -2.24537
    66   3     1.37500     7.14471    -0.00000
    67   1     2.75000     6.35085     2.24537
    68   3     4.12500     5.55700    -2.24537
    69   1    -5.50000     4.76314    -0.00000
    70   3    -2.75000     6.35085     2.24537
    71   1    -4.12500     5.55700    -2.24537
    72   3    -6.87500    -2.38157    -0.00000
    73   1    -6.87500    -0.79386     2.24537
    74   1    -6.87500     0.79386    -2.24537
    75   1    -1.37500    -7.14471    -0.00000
    76   3    -4.12500    -5.55700     2.24537
    77   1    -2.75000    -6.35085    -2.24537
    78   2     5.50000    -4.76314    -0.00000
    79   2     4.12500    -5.55700     2.24537
    80   3     2.75000    -6.35085    -2.24537
    81   2     2.75000     0.00000     6.73610
    82   3     1.37500    -2.38157     6.73610
    83   2    -1.37500     2.38157     6.73610
    84   3     1.37500    -2.38157    -6.73610
    85   2    -1.37500    -2.38157    -6.73610
    86   3     1.37500     2.38157    -6.73610
    87   1     5.50000     4.76314    -0.00000
    88   2     5.50000    -1.58771     4.49073
    89   3     5.50000     1.58771    -4.49073
    90   2    -1.37500     7.14471    -0.00000
    91   3     1.37500     5.55700     4.49073
    92   1     4.12500     3.96928    -4.49073
    93   2    -6.87500     2.38157    -0.00000
    94   2    -1.37500     5.55700     4.49073
    95   2    -4.12500     3.96928    -4.49073
    96   3    -5.50000    -4.76314    -0.00000
    97   2    -5.50000    -1.58771     4.49073
    98   1    -5.50000     1.58771    -4.49073
    99   2     1.37500    -7.14471    -0.00000
   100   2    -4.12500    -3.96928     4.49073
   101   1     6.87500    -2.38157    -0.00000
   102   2     4.12500    -3.96928     4.49073
   103   1     1.37500    -5.55700    -4.49073
   104   1     1.37500     2.38157     6.73610
   105   1    -1.37500    -2.38157     6.73610
   106   2    -2.75000     0.00000     6.73610
   107   2     2.75000     0.00000    -6.73610
   108   2    -2.75000     0.00000    -6.73610
   109   2    -1.37500     2.38157    -6.73610
   110   1     5.50000     3.17543    -2.24537
   111   2     0.00000     6.35085     2.24537
   112   3    -5.50000     3.17543    -2.24537
   113   2     5.50000    -3.17543     2.24537
   114   2     0.00000     0.00000     6.73610
   115   2     0.00000     0.00000    -6.73610
   116   1     5.50000     1.58771     2.24537
   117   3     1.37500     5.55700    -2.24537
   118   2    -4.12500     3.96928     2.24537
   119   1    -5.50000    -1.58771    -2.24537
   120   1    -1.37500    -5.55700     2.24537
   121   1     4.12500    -3.96928    -2.24537
   122   1     4.12500     0.79386     4.49073
   123   2     1.37500     3.96928    -4.49073
   124   2    -2.75000     3.17543     4.49073
   125   3    -4.12500    -0.79386    -4.49073
   126   2    -1.37500    -3.96928     4.49073
   127   1     2.75000    -3.17543    -4.49073
   128   3     4.12500     3.96928     2.24537
   129   2    -1.37500     5.55700    -2.24537
   130   3    -5.50000     1.58771     2.24537
   131   2    -4.12500    -3.96928    -2.24537
   132   1     1.37500    -5.55700     2.24537
   133   2     5.50000    -1.58771    -2.24537
   134   3     2.75000     3.17543     4.49073
   135   1    -1.37500     3.96928    -4.49073
   136   1    -4.12500     0.79386     4.49073
   137   2    -2.75000    -3.17543    -4.49073
   138   2     1.37500    -3.96928     4.49073
   139   1     4.12500    -0.79386    -4.49073
   140   2    11.00000     0.00000    -0.00000
   141   3     5.50000     9.52628    -0.00000
   142   1    -5.50000     9.52628    -0.00000
   143   1    -5.50000    -9.52628    -0.00000
   144   1     5.50000    -9.52628    -0.00000
   145   1     5.50000    -3.17543     8.98146
   146   2    -5.50000    -3.17543     8.98146
   147   2     0.00000    -6.35085    -8.98146
   148   3     5.50000     3.17543    -8.98146
   149   1    -5.50000     3.17543    -8.98146
   150   3     9.62500     2.38157    -0.00000
   151   2     9.62500    -0.79386     2.24537
   152   2     9.62500     0.79386    -2.24537
   153   1     2.75000     9.52628    -0.00000
   154   1     4.12500     8.73242     2.24537
   155   2     5.50000     7.93857    -2.24537
   156   2    -6.87500     7.14471    -0.00000
   157   1    -4.12500     8.73242     2.24537
   158   1    -9.62500    -2.38157    -0.00000
   159   2    -9.62500    -0.79386     2.24537
   160   3    -2.75000    -9.52628    -0.00000
   161   2    -5.50000    -7.93857     2.24537
   162   3    -4.12500    -8.73242    -2.24537
   163   1     6.87500    -7.14471    -0.00000
   164   3     5.50000    -7.93857     2.24537
   165   2     4.12500    -8.73242    -2.24537
   166   2     4.12500    -0.79386     8.98146
   167   3     2.75000    -3.17543     8.98146
   168   2    -1.37500     3.96928     8.98146
   169   2     1.37500    -3.96928    -8.98146
   170   1    -1.37500    -3.96928    -8.98146
   171   2     2.75000     3.17543    -8.98146
   172   2     8.25000     4.76314    -0.00000
   173   1     8.25000    -1.58771     4.49073
   174   3     8.25000     1.58771    -4.49073
   175   2     0.00000     9.52628    -0.00000
   176   1     2.75000     7.93857     4.49073
   177   2     5.50000     6.35085    -4.49073
   178   3    -8.25000     4.76314    -0.00000
   179   3    -2.75000     7.93857     4.49073
   180   3    -5.50000     6.35085    -4.49073
   181   3    -8.25000    -4.76314    -0.00000
   182   3    -8.25000    -1.58771     4.49073
   183   3    -8.25000     1.58771    -4.49073
   184   3     0.00000    -9.52628    -0.00000
   185   2    -5.50000    -6.35085     4.49073
   186   1    -2.75000    -7.93857    -4.49073
   187   2     8.25000    -4.76314    -0.00000
   188   2     5.50000    -6.35085     4.49073
   189   2     2.75000    -7.93857    -4.49073
   190   2     2.75000     1.58771     8.98146
   191   3     0.00000    -3.17543     8.98146
   192   1    -2.75000     1.58771     8.98146
   193   2     2.75000    -1.58771    -8.98146
   194   2    -2.75000    -1.58771    -8.98146
   195   3     0.00000     3.17543    -8.98146
   196   2     6.87500     7.14471    -0.00000
   197   1     6.87500    -2.38157     6.73610
   198   3     6.87500     2.38157    -6.73610
   199   2    -2.75000     9.52628    -0.00000
   200   1     1.37500     7.14471     6.73610
   201   2     5.50000     4.76314    -6.73610
   202   2    -9.62500     2.38157    -0.00000
   203   2    -1.37500     7.14471     6.73610
   204   2    -6.87500    -7.14471    -0.00000
   205   3    -6.87500    -2.38157     6.73610
   206   1    -6.87500     2.38157    -6.73610
   207   3     2.75000    -9.52628    -0.00000
   208   3    -5.50000    -4.76314     6.73610
   209   3    -1.37500    -7.14471    -6.73610
   210   1     9.62500    -2.38157    -0.00000
   211   3     5.50000    -4.76314     6.73610
   212   1     1.37500    -7.14471    -6.73610
   213   3     1.37500     3.96928     8.98146
   214   2    -2.75000    -3.17543     8.98146
   215   3    -4.12500    -0.79386     8.98146
   216   1     4.12500     0.79386    -8.98146
   217   2    -4.12500     0.79386    -8.98146
   218   1    -2.75000     3.17543    -8.98146
   219   3     8.25000     3.17543    -2.24537
   220   2     1.37500     8.73242     2.24537
   221   3    -6.87500     5.55700    -2.24537
   222   2    -8.25000    -3.17543     2.24537
   223   3    -1.37500    -8.73242    -2.24537
   224   1     6.87500    -5.55700     2.24537
   225   3     0.00000    -1.58771    -8.98146
   226   2     6.87500     3.96928    -4.49073
   227   2     0.00000     7.93857     4.49073
   228   3    -6.87500     3.96928    -4.49073
   229   2    -6.87500    -3.96928     4.49073
   230   2     0.00000    -7.93857    -4.49073
   231   3     6.87500    -3.96928     4.49073
   232   1    -1.37500    -0.79386     8.98146
   233   2    -1.37500     0.79386    -8.98146
   234   3     8.25000     1.58771     2.24537
   235   3     2.75000     7.93857    -2.24537
   236   3    -5.50000     6.35085     2.24537
   237   2    -2.75000    -7.93857     2.24537
   238   1     5.50000    -6.35085    -2.24537
   239   3     6.87500     0.79386     4.49073
   240   2     2.75000     6.35085    -4.49073
   241   2    -4.12500     5.55700     4.49073
   242   3    -2.75000    -6.35085     4.49073
   243   2     4.12500    -5.55700    -4.49073
   244   3     5.50000     0.00000     6.73610
   245   1     2.75000     4.76314    -6.73610
   246   2    -2.75000     4.76314     6.73610
   247   3    -5.50000     0.00000    -6.73610
   248   2    -2.75000    -4.76314     6.73610
   249   2     2.75000    -4.76314    -6.73610
   250   1     6.87500     5.55700    -2.24537
   251   2    -1.37500     8.73242     2.24537
   252   2    -6.87500    -5.55700     2.24537
   253   2     1.37500    -8.73242    -2.24537
   254   1     8.25000    -3.17543     2.24537
   255   1     1.37500     0.79386    -8.98146
   256   2     6.87500     3.96928     2.24537
   257   2    -6.87500     3.96928     2.24537
   258   3    -6.87500    -3.96928    -2.24537
   259   1     0.00000    -7.93857     2.24537
   260   3     6.87500    -3.96928    -2.24537
   261   2     5.50000     3.17543     4.49073
   262   1     0.00000     6.35085    -4.49073
   263   3    -5.50000     3.17543     4.49073
   264   3    -5.50000    -3.17543    -4.49073
   265   2     0.00000    -6.35085     4.49073
   266   1     4.12500     2.38157     6.73610
   267   2     0.00000     4.76314    -6.73610
   268   3    -4.12500     2.38157     6.73610
   269   2    -4.12500    -2.38157    -6.73610
   270   2     0.00000    -4.76314     6.73610
   271   1     4.12500    -2.38157    -6.73610
   272   2     5.50000     6.35085     2.24537
   273   1    -2.75000     7.93857    -2.24537
   274   2    -8.25000     1.58771     2.24537
   275   1    -5.50000    -6.35085    -2.24537
   276   2     2.75000    -7.93857     2.24537
   277   2     8.25000    -1.58771    -2.24537
   278   3     4.12500     5.55700     4.49073
   279   3    -2.75000     6.35085    -4.49073
   280   3    -6.87500     0.79386     4.49073
   281   3    -4.12500    -5.55700    -4.49073
   282   2     2.75000    -6.35085     4.49073
   283   2     6.87500    -0.79386    -4.49073
   284   1     2.75000     4.76314     6.73610
   285   3    -2.75000     4.76314    -6.73610
   286   3    -5.50000     0.00000     6.73610
   287   1     2.75000    -4.76314     6.73610
   288   1     5.50000     0.00000    -6.73610
   289   1     6.87500    11.90785    -0.00000
   290   2    -6.87500    11.90785    -0.00000
   291   2   -13.75000     0.00000    -0.00000
   292   2    -6.87500   -11.90785    -0.00000
   293   2     6.87500   -11.90785    -0.00000
   294   1     6.87500    -3.96928    11.22683
   295   2     0.00000     7.93857    11.22683
   296   2    -6.87500    -3.96928    11.22683
   297   3     0.00000    -7.93857   -11.22683
   298   3     6.87500     3.96928   -11.22683
   299   3    -6.87500     3.96928   -11.22683
   300   2    12.37500     2.38157    -0.00000
   301   1    12.37500    -0.79386     2.24537
   302   2    12.37500     0.79386    -2.24537
   303   2     4.12500    11.90785    -0.00000
   304   2     5.50000    11.11399     2.24537
   305   1     6.87500    10.32014    -2.24537
   306   1    -8.25000     9.52628    -0.00000
   307   3    -5.50000    11.11399     2.24537
   308   3   -12.37500    -2.38157    -0.00000
   309   1   -12.37500    -0.79386     2.24537
   310   3   -12.37500     0.79386    -2.24537
   311   2    -4.12500   -11.90785    -0.00000
   312   1    -6.87500   -10.32014     2.24537
   313   1    -5.50000   -11.11399    -2.24537
   314   2     8.25000    -9.52628    -0.00000
   315   2     6.87500   -10.32014     2.24537
   316   2     5.50000   -11.11399    -2.24537
   317   3     5.50000    -1.58771    11.22683
   318   2     4.12500    -3.96928    11.22683
   319   2    -1.37500     5.55700    11.22683
   320   2     1.37500    -5.55700   -11.22683
   321   2    -1.37500    -5.55700   -11.22683
   322   1     4.12500     3.96928   -11.22683
   323   3    11.00000     4.76314    -0.00000
   324   2    11.00000    -1.58771     4.49073
   325   3    11.00000     1.58771    -4.49073
   326   3     1.37500    11.90785    -0.00000
   327   2     4.12500    10.32014     4.49073
   328   2     6.87500     8.73242    -4.49073
   329   3    -9.62500     7.14471    -0.00000
   330   1    -4.12500    10.32014     4.49073
   331   1    -6.87500     8.73242    -4.49073
   332   3   -11.00000    -4.76314    -0.00000
   333   2   -11.00000    -1.58771     4.49073
   334   2   -11.00000     1.58771    -4.49073
   335   2    -1.37500   -11.90785    -0.00000
   336   2    -6.87500    -8.73242     4.49073
   337   2    -4.12500   -10.32014    -4.49073
   338   2     9.62500    -7.14471    -0.00000
   339   3     6.87500    -8.73242     4.49073
   340   3     4.12500   -10.32014    -4.49073
   341   2     4.12500     0.79386    11.22683
   342   2     1.37500    -3.96928    11.22683
   343   2    -2.75000     3.17543    11.22683
   344   2     2.75000    -3.17543   -11.22683
   345   2    -2.75000    -3.17543   -11.22683
   346   2     1.37500     3.96928   -11.22683
   347   3     9.62500     7.14471    -0.00000
   348   2     9.62500    -2.38157     6.73610
   349   2     9.62500     2.38157    -6.73610
   350   1    -1.37500    11.90785    -0.00000
   351   3     2.75000     9.52628     6.73610
   352   2     6.87500     7.14471    -6.73610
   353   1   -11.00000     4.76314    -0.00000
   354   1    -6.87500     7.14471    -6.73610
   355   2    -9.62500    -7.14471    -0.00000
   356   3    -9.62500    -2.38157     6.73610
   357   2    -9.62500     2.38157    -6.73610
   358   3     1.37500   -11.90785    -0.00000
   359   3    -6.87500    -7.14471     6.73610
   360   2    -2.75000    -9.52628    -6.73610
   361   2    11.00000    -4.76314    -0.00000
   362   2     6.87500    -7.14471     6.73610
   363   1     2.75000    -9.52628    -6.73610
   364   3     2.75000     3.17543    11.22683
   365   3    -1.37500    -3.96928    11.22683
   366   1    -4.12500     0.79386    11.22683
   367   3     4.12500    -0.79386   -11.22683
   368   2    -4.12500    -0.79386   -11.22683
   369   2    -1.37500     3.96928   -11.22683
   370   2     8.25000     9.52628    -0.00000
   371   2     8.25000    -3.17543     8.98146
   372   3     8.25000     3.17543    -8.98146
   373   3    -4.12500    11.90785    -0.00000
   374   2     1.37500     8.73242     8.98146
   375   3     6.87500     5.55700    -8.98146
   376   2   -12.37500     2.38157    -0.00000
   377   1    -1.37500     8.73242     8.98146
   378   1    -6.87500     5.55700    -8.98146
   379   2    -8.25000    -9.52628    -0.00000
   380   1    -8.25000    -3.17543     8.98146
   381   3    -8.25000     3.17543    -8.98146
   382   2     4.12500   -11.90785    -0.00000
   383   3    -6.87500    -5.55700     8.98146
   384   2    -1.37500    -8.73242    -8.98146
   385   3    12.37500    -2.38157    -0.00000
   386   1     6.87500    -5.55700     8.98146
   387   2     1.37500    -8.73242    -8.98146
   388   2     1.37500     5.55700    11.22683
   389   1    -4.12500    -3.96928    11.22683
   390   3    -5.50000    -1.58771    11.22683
   391   3     5.50000     1.58771   -11.22683
   392   3    -5.50000     1.58771   -11.22683
   393   2    -4.12500     3.96928   -11.22683
   394   3    11.00000     3.17543    -2.24537
   395   3     2.75000    11.11399     2.24537
   396   2    -8.25000     7.93857    -2.24537
   397   2   -11.00000    -3.17543     2.24537
   398   1    -2.75000   -11.11399    -2.24537
   399   2     8.25000    -7.93857     2.24537
   400   2     2.75000    -1.58771    11.22683
   401   1     0.00000    -3.17543   -11.22683
   402   2     9.62500     3.96928    -4.49073
   403   2     1.37500    10.32014     4.49073
   404   2    -8.25000     6.35085    -4.49073
   405   3    -9.62500    -3.96928     4.49073
   406   2    -1.37500   -10.32014    -4.49073
   407   3     8.25000    -6.35085     4.49073
   408   2     0.00000    -1.58771    11.22683
   409   2    -1.37500    -0.79386   -11.22683
   410   2     8.25000     4.76314    -6.73610
   411   3     0.00000     9.52628     6.73610
   412   1    -8.25000     4.76314    -6.73610
   413   2    -8.25000    -4.76314     6.73610
   414   3     8.25000    -4.76314     6.73610
   415   2    -2.75000    -1.58771    11.22683
   416   1    -2.75000     1.58771   -11.22683
   417   1    11.00000     1.58771     2.24537
   418   2     4.12500    10.32014    -2.24537
   419   2    -6.87500     8.73242     2.24537
   420   3   -11.00000    -1.58771    -2.24537
   421   2    -4.12500   -10.32014     2.24537
   422   1     9.62500     0.79386     4.49073
   423   2     4.12500     8.73242    -4.49073
   424   1    -5.50000     7.93857     4.49073
   425   2    -9.62500    -0.79386    -4.49073
   426   2    -4.12500    -8.73242     4.49073
   427   2     5.50000    -7.93857    -4.49073
   428   1     8.25000     0.00000     6.73610
   429   1     4.12500     7.14471    -6.73610
   430   3    -4.12500     7.14471     6.73610
   431   1    -8.25000     0.00000    -6.73610
   432   2    -4.12500    -7.14471     6.73610
   433   2     4.12500    -7.14471    -6.73610
   434   3     6.87500    -0.79386     8.98146
   435   2     4.12500     5.55700    -8.98146
   436   1    -2.75000     6.35085     8.98146
   437   1    -6.87500     0.79386    -8.98146
   438   3    -4.12500    -5.55700     8.98146
   439   2     2.75000    -6.35085    -8.98146
   440   3     9.62500     5.55700    -2.24537
   441   1     0.00000    11.11399     2.24537
   442   2    -9.62500     5.55700    -2.24537
   443   3    -9.62500    -5.55700     2.24537
   444   2     0.00000   -11.11399    -2.24537
   445   1     9.62500    -5.55700     2.24537
   446   3     1.37500     0.79386    11.22683
   447   1     1.37500    -0.79386   -11.22683
   448   2     8.25000     6.35085    -4.49073
   449   3    -1.37500    10.32014     4.49073
   450   1    -9.62500     3.96928    -4.49073
   451   2    -8.25000    -6.35085     4.49073
   452   2     1.37500   -10.32014    -4.49073
   453   3     9.62500    -3.96928     4.49073
   454   3    -1.37500     0.79386    11.22683
   455   3     0.00000     1.58771   -11.22683
   456   1     9.62500     3.96928     2.24537
   457   3     1.37500    10.32014    -2.24537
   458   2    -8.25000     6.35085     2.24537
   459   3    -9.62500    -3.96928    -2.24537
   460   2    -1.37500   -10.32014     2.24537
   461   1     8.25000    -6.35085    -2.24537
   462   1     8.25000     3.17543     4.49073
   463   3     1.37500     8.73242    -4.49073
   464   2    -6.87500     5.55700     4.49073
   465   3    -8.25000    -3.17543    -4.49073
   466   2    -1.37500    -8.73242     4.49073
   467   3     6.87500    -5.55700    -4.49073
   468   2     6.87500     2.38157     6.73610
   469   1     1.37500     7.14471    -6.73610
   470   1    -5.50000     4.76314     6.73610
   471   2    -6.87500    -2.38157    -6.73610
   472   1    -1.37500    -7.14471     6.73610
   473   2     5.50000    -4.76314    -6.73610
   474   2     5.50000     1.58771     8.98146
   475   3     1.37500     5.55700    -8.98146
   476   3    -4.12500     3.96928     8.98146
   477   3    -1.37500    -5.55700     8.98146
   478   2     4.12500    -3.96928    -8.98146
   479   2     8.25000     7.93857    -2.24537
   480   2    -2.75000    11.11399     2.24537
   481   2   -11.00000     3.17543    -2.24537
   482   1    -8.25000    -7.93857     2.24537
   483   3     2.75000   -11.11399    -2.24537
   484   1    11.00000    -3.17543     2.24537
   485   3     0.00000     3.17543    11.22683
   486   1     2.75000     1.58771   -11.22683
   487   1     8.25000     6.35085     2.24537
   488   2    -1.37500    10.32014    -2.24537
   489   2    -9.62500     3.96928     2.24537
   490   2    -8.25000    -6.35085    -2.24537
   491   3     1.37500   -10.32014     2.24537
   492   1     9.62500    -3.96928    -2.24537
   493   2     6.87500     5.55700     4.49073
   494   1    -1.37500     8.73242    -4.49073
   495   2    -8.25000     3.17543     4.49073
   496   3    -6.87500    -5.55700    -4.49073
   497   1     1.37500    -8.73242     4.49073
   498   2     8.25000    -3.17543    -4.49073
   499   2     5.50000     4.76314     6.73610
   500   2    -1.37500     7.14471    -6.73610
   501   2    -6.87500     2.38157     6.73610
   502   3    -5.50000    -4.76314    -6.73610
   503   2     1.37500    -7.14471     6.73610
   504   1     4.12500     3.96928     8.98146
   505   1    -1.37500     5.55700    -8.98146
   506   1    -5.50000     1.58771     8.98146
   507   2    -4.12500    -3.96928    -8.98146
   508   2     1.37500    -5.55700     8.98146
   509   2     5.50000    -1.58771    -8.98146
   510   2     6.87500     8.73242     2.24537
   511   2    -4.12500    10.32014    -2.24537
   512   3   -11.00000     1.58771     2.24537
   513   2     4.12500   -10.32014     2.24537
   514   3    11.00000    -1.58771    -2.24537
   515   2    -4.12500     8.73242    -4.49073
   516   2    -9.62500     0.79386     4.49073
   517   3    -5.50000    -7.93857    -4.49073
   518   3     4.12500    -8.73242     4.49073
   519   3     9.62500    -0.79386    -4.49073
   520   3     4.12500     7.14471     6.73610
   521   2    -4.12500     7.14471    -6.73610
   522   3    -8.25000     0.00000     6.73610
   523   3    -4.12500    -7.14471    -6.73610
   524   2     4.12500    -7.14471     6.73610
   525   3     8.25000     0.00000    -6.73610
   526   2     2.75000     6.35085     8.98146
   527   3    -4.12500     5.55700    -8.98146
   528   1    -6.87500    -0.79386     8.98146
   529   3    -2.75000    -6.35085    -8.98146
   530   2     4.12500    -5.55700     8.98146
   531   2    16.50000     0.00000    -0.00000
   532   1     8.25000    14.28942    -0.00000
   533   1    -8.25000    14.28942    -0.00000
   534   1   -16.50000     0.00000    -0.00000
   535   1    -8.25000   -14.28942    -0.00000
   536   1     8.25000   -14.28942    -0.00000
   537   1     8.25000    -4.76314    13.47219
   538   3     0.00000     9.52628    13.47219
   539   1    -8.25000    -4.76314    13.47219
   540   1     0.00000    -9.52628   -13.47219
   541   1     8.25000     4.76314   -13.47219
   542   2    -8.25000     4.76314   -13.47219
   543   3    15.12500     2.38157    -0.00000
   544   2    15.12500    -0.79386     2.24537
   545   2    15.12500     0.79386    -2.24537
   546   2     5.50000    14.28942    -0.00000
   547   3     6.87500    13.49556     2.24537
   548   3     8.25000    12.70171    -2.24537
   549   1    -9.62500    11.90785    -0.00000
   550   2    -6.87500    13.49556     2.24537
   551   2    -8.25000    12.70171    -2.24537
   552   2   -15.12500    -2.38157    -0.00000
   553   3   -15.12500    -0.79386     2.24537
   554   2   -15.12500     0.79386    -2.24537
   555   1    -5.50000   -14.28942    -0.00000
   556   2    -8.25000   -12.70171     2.24537
   557   1    -6.87500   -13.49556    -2.24537
   558   1     9.62500   -11.90785    -0.00000
   559   2     8.25000   -12.70171     2.24537
   560   2     6.87500   -13.49556    -2.24537
   561   2     6.87500    -2.38157    13.47219
   562   2     5.50000    -4.76314    13.47219
   563   1    -1.37500     7.14471    13.47219
   564   1     1.37500    -7.14471   -13.47219
   565   1    -1.37500    -7.14471   -13.47219
   566   1     5.50000     4.76314   -13.47219
   567   3    13.75000     4.76314    -0.00000
   568   3    13.75000    -1.58771     4.49073
   569   1    13.75000     1.58771    -4.49073
   570   1     5.50000    12.70171     4.49073
   571   1     8.25000    11.11399    -4.49073
   572   2   -11.00000     9.52628    -0.00000
   573   1    -5.50000    12.70171     4.49073
   574   2    -8.25000    11.11399    -4.49073
   575   2   -13.75000    -4.76314    -0.00000
   576   2   -13.75000    -1.58771     4.49073
   577   2   -13.75000     1.58771    -4.49073
   578   3    -2.75000   -14.28942    -0.00000
   579   2    -8.25000   -11.11399     4.49073
   580   1    -5.50000   -12.70171    -4.49073
   581   3    11.00000    -9.52628    -0.00000
   582   2     8.25000   -11.11399     4.49073
   583   2     5.50000   -12.70171    -4.49073
   584   3     5.50000     0.00000    13.47219
   585   1     2.75000    -4.76314    13.47219
   586   1     2.75000    -4.76314   -13.47219
   587   3    -2.75000    -4.76314   -13.47219
   588   2     2.75000     4.76314   -13.47219
   589   1    12.37500     7.14471    -0.00000
   590   1    12.37500    -2.38157     6.73610
   591   2    12.37500     2.38157    -6.73610
   592   3     4.12500    11.90785     6.73610
   593   2     8.25000     9.52628    -6.73610
   594   2    -4.12500    11.90785     6.73610
   595   1    -8.25000     9.52628    -6.73610
   596   3   -12.37500    -7.14471    -0.00000
   597   1   -12.37500    -2.38157     6.73610
   598   2   -12.37500     2.38157    -6.73610
   599   2     0.00000   -14.28942    -0.00000
   600   3    -8.25000    -9.52628     6.73610
   601   2    12.37500    -7.14471    -0.00000
   602   3     4.12500   -11.90785    -6.73610
   603   1     4.12500     2.38157    13.47219
   604   3     0.00000    -4.76314    13.47219
   605   1    -4.12500     2.38157    13.47219
   606   1     4.12500    -2.38157   -13.47219
   607   2    -4.12500    -2.38157   -13.47219
   608   2     0.00000     4.76314   -13.47219
   609   1    11.00000     9.52628    -0.00000
   610   3    11.00000    -3.17543     8.98146
   611   2    11.00000     3.17543    -8.98146
   612   2    -2.75000    14.28942    -0.00000
   613   3     2.75000    11.11399     8.98146
   614   2     8.25000     7.93857    -8.98146
   615   1   -13.75000     4.76314    -0.00000
   616   3    -2.75000    11.11399     8.98146
   617   2    -8.25000     7.93857    -8.98146
   618   2   -11.00000    -9.52628    -0.00000
   619   3   -11.00000    -3.17543     8.98146
   620   3   -11.00000     3.17543    -8.98146
   621   1     2.75000   -14.28942    -0.00000
   622   1    -8.25000    -7.93857     8.98146
   623   2    -2.75000   -11.11399    -8.98146
   624   2    13.75000    -4.76314    -0.00000
   625   1     8.25000    -7.93857     8.98146
   626   3     2.75000   -11.11399    -8.98146
   627   2     2.75000     4.76314    13.47219
   628   1    -2.75000    -4.76314    13.47219
   629   2    -5.50000     0.00000    13.47219
   630   2     5.50000     0.00000   -13.47219
   631   3    -5.50000     0.00000   -13.47219
   632   2    -2.75000     4.76314   -13.47219
   633   2     9.62500    11.90785    -0.00000
   634   2     9.62500    -3.96928    11.22683