5017
 Atoms. Timestep: 100
2 0.114089 0.0402621 0.0181031
3 2.60258 0.0316497 0.0859563
3 1.326 2.25752 0.0663685
3 -1.30282 2.21661 0.0703309
2 -2.56864 0.0608089 0.0889401
2 -1.21285 -2.31982 0.0278329
3 1.36162 -2.27489 0.123065
3 1.33654 -0.860788 2.0916
3 -0.0878027 1.5084 2.15835
2 -1.28568 -0.714417 2.20961
1 0.0398985 -1.5245 -2.17351
3 1.30801 0.741661 -2.11389
2 -1.30921 0.775176 -2.12574
2 5.15615 0.0323304 0.0348124
2 2.59512 4.50871 0.124928
2 -2.53829 4.46693 -0.0166413
2 -5.24359 -0.0167082 0.0684053
1 -2.68804 -4.64414 0.00125505
1 2.67834 -4.56195 0.0404691
2 2.65974 -1.4613 4.27174
2 0.0802836 2.97302 4.27719
3 -2.60644 -1.46674 4.32225
2 0.00824625 -3.08844 -4.28097
2 2.65577 1.58109 -4.21441
2 -2.62903 1.55624 -4.32299
3 3.92544 2.3435 0.097212
2 3.94253 -0.814767 2.14284
1 3.92668 0.793608 -2.11124
3 -0.0618504 4.53466 -0.0108427
1 1.31815 3.75713 2.15058
2 2.60271 2.9744 -2.06139
3 -3.90887 2.31585 0.00777616
2 -1.27183 3.75989 2.14172
2 -2.62284 3.08463 -2.13677
1 -3.95915 -2.2728 0.0574257
3 -3.86776 -0.708499 2.19404
2 -3.93786 0.775741 -2.0853
1 -0.0145414 -4.57937 0.00466624
1 -2.58595 -2.99749 2.20778
2 -1.29394 -3.7439 -2.23826
3 3.91677 -2.25618 0.0139914
3 2.57199 -3.01311 2.12402
3 1.33771 -3.84013 -2.06882
3 1.28058 0.756002 4.27074
1 0.0503999 -1.50793 4.28864
3 -1.3359 0.755663 4.31277
2 1.30972 -0.723353 -4.27547
1 -1.34671 -0.777175 -4.3031
2 -0.0340091 1.50628 -4.21008
2 2.54794 1.49417 2.1609
2 0.00207891 3.02915 -2.05392
2 -2.5994 1.56236 2.18047
1 -2.67008 -1.50859 -2.12938
3 0.136299 -2.95608 2.10221
1 2.66871 -1.50673 -2.0708
1 7.82845 0.0113371 0.0015371
1 3.90296 6.80754 0.00577767
2 -3.92309 6.89094 -0.0193537
2 -7.92895 0.032347 0.0490253
2 -3.9741 -6.85929 0.0142481
2 3.92463 -6.79329 0.0547341
2 3.83642 -2.27558 6.3983
1 0.0415881 4.52386 6.44357
2 -3.80972 -2.19886 6.54459
1 -0.0216569 -4.62656 -6.48218
1 3.9815 2.33108 -6.47426
1 -3.94664 2.36458 -6.43775
1 6.5401 2.25382 0.0206473
3 6.51308 -0.725248 2.11497
2 6.58985 0.743714 -2.167
3 1.35221 6.86554 0.0475886
3 2.59773 6.08766 2.13668
2 4.01381 5.33693 -2.07531
2 -5.29498 4.45431 -0.0437128
2 -2.52336 6.06583 2.1789
1 -3.91865 5.34386 -2.18378
3 -6.6125 -2.23541 0.0822537
1 -6.62986 -0.764894 2.1934
2 -6.57764 0.799413 -2.08718
2 -1.31389 -6.85196 0.0653975
1 -3.97268 -5.34001 2.29328
2 -2.62393 -6.14159 -2.16901
3 5.21406 -4.54835 -0.0442159
2 3.96984 -5.26063 2.10955
2 2.61959 -6.06424 -2.24417
3 2.57321 -0.0327867 6.40871
3 1.306 -2.31424 6.4292
2 -1.25015 2.20254 6.48209
2 1.39232 -2.28206 -6.42719
1 -1.25128 -2.29029 -6.48272
2 1.30591 2.33281 -6.47334
2 5.35421 4.51384 0.0628785
3 5.20941 -1.43936 4.25836
1 5.29359 1.52544 -4.31816
3 -1.2876 6.82095 0.00630269
2 1.38881 5.30384 4.32908
2 3.92382 3.7873 -4.27858
1 -6.58513 2.30294 0.0383448
3 -1.19229 5.29405 4.29084
3 -3.92213 3.74332 -4.28786
1 -5.39789 -4.58388 0.00609566
2 -5.2025 -1.49171 4.36089
3 -5.21394 1.51963 -4.27403
2 1.30198 -6.84488 0.0337991
2 -3.87708 -3.81579 4.39255
3 -1.32862 -5.31644 -4.24473
2 6.42195 -2.17879 -0.0284145
3 3.87288 -3.73933 4.21301
1 1.30651 -5.39356 -4.30815
1 1.32753 2.21485 6.40309
1 -1.29876 -2.29126 6.38779
3 -2.56505 0.0216255 6.46895
3 2.64806 0.0747834 -6.44955
1 -2.61815 -0.00206569 -6.50344
3 -1.28567 2.26575 -6.44563
2 5.25248 3.00222 -2.07475
1 0.0484161 6.0443 2.18248
1 -5.25508 3.04481 -2.17285
2 -5.19645 -3.007 2.19443
2 -0.0618772 -6.07269 -2.21598
1 5.22325 -3.05397 2.13255
2 0.0123371 -0.0396676 6.45497
2 -0.0569352 -0.0102211 -6.46255
2 5.13938 1.46914 2.19593
1 1.39092 5.40046 -1.99682
1 -3.97308 3.76686 2.14814
2 -5.34756 -1.54273 -2.13253
3 -1.3554 -5.349 2.17383
2 3.95173 -3.68941 -2.11357
3 3.87672 0.806961 4.30487
2 1.32899 3.82847 -4.1619
2 -2.49852 3.07289 4.28792
2 -3.96889 -0.815348 -4.40332
1 -1.33712 -3.81998 4.32661
1 2.69191 -3.00615 -4.31655
2 3.8969 3.83909 2.17442
3 -1.27637 5.30125 -2.01647
1 -5.18337 1.52661 2.14836
2 -3.98449 -3.74322 -2.16936
2 1.23977 -5.28841 2.21072
3 5.24259 -1.45765 -2.11575
3 2.61963 2.95131 4.2738
3 -1.25749 3.68576 -4.27779
1 -3.94031 0.771184 4.32656
3 -2.57531 -2.97528 -4.25745
2 1.24979 -3.75442 4.28033
2 3.9798 -0.715024 -4.31921
2 10.5716 -0.00881706 -0.0780828
3 5.33567 9.12824 -0.0444233
3 -5.22027 9.16601 -0.0438644
2 -10.6172 -0.037773 0.119572
1 -5.26543 -9.05143 -0.0544918
1 5.27634 -9.18132 0.0776904
1 5.32366 -3.02396 8.6816
3 0.0824563 6.03442 8.69023
1 -5.25688 -3.0361 8.73479
1 0.0894314 -6.14883 -8.68723
2 5.30626 3.05772 -8.68388
3 -5.35781 3.05424 -8.68471
2 9.31129 2.3797 0.0336263
3 9.20246 -0.627736 2.14282
1 9.24365 0.808699 -2.18813
2 2.65227 9.18988 0.0502441
1 3.974 8.35331 2.17103
3 5.28809 7.63453 -2.06356
3 -6.58335 6.8349 0.0139681
2 -3.90801 8.3777 2.10494
1 -5.32442 7.7003 -2.21682
2 -9.20421 -2.30073 0.109566
2 -9.28363 -0.69767 2.24258
1 -9.32111 0.733593 -2.19773
3 -2.64007 -9.03966 -0.0455252
1 -5.29551 -7.6426 2.26957
3 -3.97357 -8.37165 -2.14008
2 6.4672 -6.89917 0.0352511
3 5.20439 -7.64035 2.22494
2 4.00258 -8.39816 -2.16695
2 4.01744 -0.792556 8.6376
2 2.65152 -3.06006 8.62508
1 -1.25421 3.7075 8.6043
2 1.31321 -3.90161 -8.59326
3 -1.18543 -3.82322 -8.73992
1 2.6198 3.0653 -8.54789
1 7.92066 4.60875 0.0133504
2 7.7982 -1.46241 4.31975
2 7.96453 1.52295 -4.36254
1 0.0677962 9.05973 0.0342504
3 2.61608 7.59593 4.31095
1 5.25507 6.12476 -4.24813
2 -7.90236 4.62752 0.0244617
2 -2.49712 7.56611 4.33624
3 -5.26895 6.11097 -4.30627
2 -7.95853 -4.54611 0.0850414
2 -7.89089 -1.55331 4.41058
2 -7.87255 1.51235 -4.30896
2 -0.0645954 -9.02016 0.0181483
3 -5.26461 -6.11236 4.3926
3 -2.53251 -7.68047 -4.19607
2 7.88208 -4.52449 0.00632221
2 5.19602 -6.06512 4.33605
3 2.66256 -7.6109 -4.39505
2 2.58053 1.49653 8.56876
1 0.0735631 -3.10662 8.5812
3 -2.62513 1.4794 8.62586
2 2.65433 -1.40081 -8.66084
1 -2.60761 -1.53666 -8.70766
3 0.00767396 3.06914 -8.63972
2 6.68897 6.81339 0.064169
2 6.54154 -2.26021 6.52455
3 6.56762 2.40606 -6.44306
3 -2.60308 9.08829 -0.00739807
2 1.33082 6.75624 6.49305
2 5.35923 4.6248 -6.33052
1 -9.20827 2.27705 -0.0192661
1 -1.20676 6.90099 6.42354
3 -5.2312 4.71875 -6.41657
2 -6.75246 -6.84499 0.0763748
2 -6.54697 -2.2817 6.57351
1 -6.61056 2.31672 -6.44552
2 2.67648 -9.07175 0.0417446
2 -5.29752 -4.59469 6.52383
2 -1.25567 -6.86893 -6.31591
1 9.17406 -2.22011 -0.0218876
1 5.25774 -4.5032 6.45528
3 1.31867 -6.97459 -6.47695
2 1.37802 3.76565 8.59448
1 -2.61795 -3.10327 8.62564
3 -3.91589 -0.718243 8.694
3 4.0121 0.782317 -8.5925
1 -3.9216 0.788388 -8.65414
2 -2.65063 3.05417 -8.67994
2 8.00705 3.13938 -2.21193
1 1.3775 8.32808 2.11772
1 -6.59785 5.36331 -2.18764
2 -7.97354 -3.07269 2.2495
3 -1.3359 -8.42329 -2.1181
2 6.49972 -5.34503 2.18966
1 1.41013 -0.778978 8.53772
1 0.0570426 -1.44664 -8.68469
1 6.6125 3.82925 -4.31512
3 0.101344 7.58782 4.35794
2 -6.49268 3.81638 -4.35011
1 -6.5658 -3.73486 4.38481
3 -0.111271 -7.62952 -4.25483
2 6.45417 -3.80987 4.26109
1 -1.2819 -0.724107 8.6084
2 -1.26585 0.80902 -8.62041
2 7.86426 1.55444 2.15265
2 2.73376 7.66365 -2.09769
2 -5.2629 6.00472 2.15944
2 -7.88309 -1.49241 -2.15555
2 -2.59356 -7.63557 2.15814
2 5.20836 -6.08555 -2.17491
1 6.54436 0.771119 4.35683
2 2.71976 6.14841 -4.21894
2 -3.95467 5.37238 4.37998
1 -6.55496 -0.750093 -4.39434
2 -2.60662 -6.10224 4.34558
3 3.91056 -5.37075 -4.37196
2 5.22182 -0.00226478 6.43241
3 2.66497 4.66008 -6.32449
1 -2.58764 4.64974 6.41121
2 -5.24107 0.104156 -6.55841
3 -2.6393 -4.53659 6.54274
1 2.53855 -4.64062 -6.48028
2 6.58786 5.41242 -2.14352
1 -1.3033 8.29068 2.18332
2 -7.88442 3.06163 -2.12601
2 -6.62685 -5.35012 2.25409
2 1.32839 -8.30354 -2.31951
2 7.819 -2.94716 2.17104
3 -0.0436836 1.51329 8.58717
2 1.39582 0.778591 -8.62847
1 6.60968 3.69491 2.22156
3 -0.0548556 7.54224 -2.05903
2 -6.60321 3.79648 2.20826
3 -6.68444 -3.82512 -2.09344
3 0.0145261 -7.59491 2.24842
2 6.59629 -3.73742 -2.12928
2 5.16688 2.96644 4.38192
1 0.0645473 6.04634 -4.27266
2 -5.26269 3.03632 4.40697
1 -5.20037 -3.09259 -4.31538
3 -0.0554157 -6.16091 4.27827
2 5.27388 -3.06448 -4.39416
1 3.96827 2.25422 6.42159
2 0.100076 4.58139 -6.47878
2 -3.93289 2.27192 6.58397
1 -3.94618 -2.26609 -6.53459
1 0.0390562 -4.66108 6.41334
1 3.91757 -2.22979 -6.5091
1 5.27579 6.02091 2.09545
2 -2.56785 7.58498 -2.1567
1 -7.88141 1.56662 2.27486
2 -5.32117 -6.08997 -2.21283
2 2.61817 -7.56747 2.23536
2 7.93188 -1.52142 -2.1502
1 3.96653 5.29514 4.26744
1 -2.61451 5.95477 -4.27848
3 -6.5867 0.69155 4.42911
1 -3.82587 -5.36665 -4.25512
1 2.56494 -6.02682 4.30429
1 6.5898 -0.850798 -4.29787
3 2.69779 4.52086 6.4442
2 -2.63427 4.46123 -6.34588
3 -5.2449 0.0203536 6.53714
2 -2.56618 -4.41108 -6.49862
1 2.63391 -4.58003 6.43325
2 5.34012 0.076071 -6.43869
3 13.2741 0.0745242 -0.0352755
2 6.5469 11.557 -0.0137776
3 -6.68226 11.5461 -0.0967405
2 -13.3048 -0.030586 0.0482959
1 -6.62364 -11.4414 -0.00554946
3 6.64317 -11.5357 0.106576
3 6.6347 -3.79841 10.7891
3 -0.0177759 7.67829 10.8031
2 -6.60702 -3.86689 10.8739
3 0.0536167 -7.59529 -10.9045
2 6.61058 3.78879 -10.8327
2 -6.59636 3.82326 -10.8527
1 11.8674 2.33757 0.0434392
2 11.8474 -0.798384 2.16115
1 11.9525 0.794959 -2.25575
3 4.0013 11.4514 -0.0888587
1 5.33983 10.7134 2.14958
1 6.66385 9.9296 -2.0916
2 -7.87963 9.11151 -0.0349569
2 -5.31391 10.6211 2.08195
2 -6.57322 9.93632 -2.07646
1 -11.9502 -2.29561 0.0874751
3 -11.8976 -0.753907 2.25826
3 -11.9723 0.756396 -2.15726
3 -3.94977 -11.4421 0.031811
2 -6.62484 -9.97763 2.15974
3 -5.23045 -10.6593 -2.18805
1 7.94073 -9.2031 0.0421546
3 6.60261 -10.0225 2.15006
2 5.43018 -10.6838 -2.12289
3 5.35627 -1.62235 10.7354
3 4.00799 -3.82809 10.7894
2 -1.35014 5.42108 10.8683
3 1.37949 -5.3478 -10.8189
2 -1.1993 -5.37391 -10.8444
3 3.99249 3.75128 -10.7633
3 10.6099 4.60305 0.118946
1 10.4701 -1.45933 4.34767
2 10.6449 1.63954 -4.37463
3 1.44124 11.4299 -0.0185317
1 3.94023 9.91493 4.34167
3 6.73523 8.47589 -4.26709
3 -9.17719 6.91243 -0.0356473
1 -3.93556 9.88076 4.34308
2 -6.61804 8.40692 -4.33349
1 -10.6004 -4.66975 0.0963273
2 -10.5162 -1.54333 4.45052
3 -10.5201 1.54443 -4.34567
1 -1.37512 -11.3588 0.0329514
2 -6.61246 -8.37011 4.46245
2 -3.92474 -9.88356 -4.32566
1 9.18071 -6.78737 0.0652697
1 6.53494 -8.36596 4.32504
2 3.95889 -9.84833 -4.33433
2 4.01261 0.672065 10.6954
1 1.38231 -3.86151 10.7999
2 -2.6102 3.06141 10.7637
2 2.58315 -3.03367 -10.9033
2 -2.62531 -3.02606 -10.8475
2 1.31728 3.7268 -10.7188
2 9.3626 6.87225 0.0641114
2 9.23341 -2.24225 6.54264
2 9.19723 2.33122 -6.54747
1 -1.27953 11.4141 -0.00104776
2 2.63828 9.15764 6.4828
2 6.63007 6.91748 -6.46546
1 -10.5232 4.61706 -0.0701047
1 -2.58093 9.1547 6.53454
2 -6.47025 6.98182 -6.45769
3 -9.3327 -6.86961 0.0195597
1 -9.22653 -2.26293 6.58949
2 -9.26815 2.4012 -6.5021
1 1.34891 -11.3466 0.0793311
3 -6.60766 -6.82808 6.44315
1 -2.53148 -9.13273 -6.42655
1 10.6327 -4.55522 -0.029369
3 6.57071 -6.88515 6.53835
3 2.65569 -9.10666 -6.47156
3 2.74032 2.96369 10.8225
2 -1.21015 -3.92576 10.8843
2 -3.93328 0.746896 10.804
3 3.92439 -0.751073 -10.8598
1 -3.92667 -0.796194 -10.8676
3 -1.35782 3.81542 -10.7683
2 8.00465 9.20524 0.028434
3 7.89871 -3.04219 8.69019
2 7.95797 3.05155 -8.60421
2 -4.00901 11.46 0.00344889
2 1.38073 8.33744 8.66787
2 6.65141 5.34706 -8.73098
2 -11.9877 2.28351 0.0246771
2 -1.30699 8.42595 8.73875
2 -6.57178 5.35741 -8.58309
2 -7.97362 -9.16391 0.0779997
1 -7.98823 -3.09875 8.73794
3 -7.9189 3.11312 -8.68347
2 4.02265 -11.5168 0.140014
2 -6.66284 -5.44251 8.56902
1 -1.27922 -8.52392 -8.72253
1 11.9721 -2.2321 -0.0674139
3 6.55835 -5.43812 8.71753
3 1.34109 -8.37628 -8.6275
2 1.3173 5.38756 10.8485
2 -3.9745 -3.89874 10.9573
3 -5.30845 -1.49229 10.8773
3 5.34512 1.56279 -10.8219
3 -5.37215 1.55495 -10.8941
3 -3.94175 3.80044 -10.8257
3 10.6299 3.1464 -2.16135
3 2.62866 10.7011 2.20786
3 -7.95938 7.68952 -2.13151
2 -10.6478 -3.10619 2.21143
2 -2.62486 -10.6449 -2.18256
2 7.82636 -7.69847 2.16128
3 2.67966 -1.51241 10.71
1 0.0914835 -3.02745 -10.8671
2 9.38304 3.91064 -4.32765
2 1.32263 9.81296 4.2954
2 -7.88917 6.13234 -4.27028
3 -9.26442 -3.84941 4.43804
3 -1.21597 -9.91726 -4.2986
2 7.9316 -6.11779 4.30597
3 0.0818424 -1.55866 10.7394
2 -1.2126 -0.848369 -10.9104
3 7.94459 4.66744 -6.53249
3 0.0759468 9.1364 6.56345
1 -7.94797 4.71191 -6.37909
3 -7.88565 -4.53103 6.5231
3 0.0635819 -9.10627 -6.5237
1 7.83157 -4.54161 6.52856
1 -2.67031 -1.50475 10.817
2 -2.60291 1.45022 -10.8473
2 10.5671 1.53568 2.19127
2 4.05841 9.94344 -2.18914
1 -6.5366 8.38532 2.14296
2 -10.5617 -1.50976 -2.18426
1 -3.91207 -9.88483 2.09384
3 6.61246 -8.33994 -2.16418
2 9.29566 0.801685 4.32633
3 4.02098 8.4083 -4.28762
2 -5.27784 7.70632 4.32874
3 -9.24697 -0.780222 -4.37132
2 -3.83875 -8.40224 4.48288
2 5.25444 -7.58392 -4.37975
1 7.91831 -0.0171006 6.50202
3 4.02032 6.87303 -6.37737
3 -3.95348 6.88602 6.51248
2 -7.92241 -0.0619622 -6.51947
1 -3.88687 -6.96155 6.50991
3 3.91053 -6.89274 -6.44293
3 6.58646 -0.704059 8.59768
1 4.02571 5.35142 -8.56142
1 -2.59742 6.09587 8.69677
1 -6.64281 0.772473 -8.61871
2 -3.93982 -5.42271 8.66674
3 2.66667 -6.1429 -8.62807
1 9.37551 5.35257 -2.15061
3 0.0464913 10.6957 2.16355
2 -9.32442 5.42823 -2.17605
1 -9.28872 -5.34887 2.32015
2 0.0510078 -10.645 -2.10574
2 9.23261 -5.34954 2.20105
3 1.30471 0.783596 10.7075
3 1.38964 -0.741347 -10.8598
1 7.9883 6.09114 -4.33549
2 -1.23074 9.90038 4.42309
2 -9.36636 3.83007 -4.37484
3 -7.93023 -6.13355 4.3743
2 1.342 -9.82144 -4.41367
2 9.21534 -3.79328 4.29099
2 -1.22426 0.711814 10.7912
3 0.0109022 1.45404 -10.7108
3 9.27842 3.79784 2.2321
1 1.30823 9.83876 -2.14285
1 -7.9193 6.12128 2.2012
2 -9.29988 -3.7683 -2.166
2 -1.34677 -9.85399 2.16085
2 8.02948 -6.18211 -2.15472
3 7.88561 3.07411 4.31413
2 1.39438 8.36334 -4.17793
1 -6.57722 5.35969 4.34361
2 -7.83141 -3.02869 -4.35737
3 -1.26504 -8.42066 4.38019
1 6.58022 -5.31851 -4.31655
3 6.56448 2.26118 6.4132
2 1.36562 6.85873 -6.42376
1 -5.33252 4.58571 6.51539
3 -6.58074 -2.31604 -6.54748
2 -1.28514 -6.91449 6.43095
2 5.18129 -4.6117 -6.55531
3 5.24579 1.48353 8.61482
3 1.29277 5.3633 -8.65589
1 -3.95164 3.75874 8.60161
3 -5.24009 -1.55349 -8.62579
2 -1.25145 -5.43994 8.64294
1 3.8899 -3.76028 -8.65642
2 7.97609 7.60251 -2.17346
1 -2.55858 10.6854 2.20695
2 -10.6382 3.09879 -2.17451
1 -7.96686 -7.65206 2.28536
2 2.72253 -10.6406 -2.12625
1 10.4451 -3.04023 2.15457
2 0.0587727 3.07238 10.7658
1 2.69017 1.53195 -10.7549
1 7.95427 6.08213 2.23225
3 -1.35055 9.93714 -2.14377
2 -9.26504 3.8426 2.19166
2 -7.94616 -6.0781 -2.17161
2 1.29778 -9.89134 2.22338
1 9.22923 -3.82272 -2.15173
2 6.60913 5.3553 4.32404
2 -1.32505 8.36321 -4.2265
2 -7.91188 2.97363 4.40621
3 -6.61198 -5.34526 -4.39336
3 1.21677 -8.35904 4.37264
2 8.00743 -2.94934 -4.36782
1 5.31555 4.52573 6.47029
2 -1.3258 6.8615 -6.37312
1 -6.53079 2.21529 6.55271
1 -5.23688 -4.59609 -6.49324
3 1.33549 -6.89605 6.49517
1 6.61929 -2.24442 -6.53298
2 4.04413 3.81724 8.60085
2 -1.25849 5.25749 -8.62946
3 -5.24774 1.49683 8.6149
3 -3.91186 -3.842 -8.68218
2 1.37332 -5.44353 8.63884
1 5.30221 -1.47354 -8.71859
2 6.69144 8.46749 2.21582
2 -3.93121 9.92205 -2.14351
2 -10.5556 1.56437 2.27721
2 -6.59204 -8.43531 -2.22164
3 3.97436 -9.91591 2.22791
1 10.5771 -1.47895 -2.24283
1 5.32447 7.67232 4.36795
2 -4.01034 8.45854 -4.37931
3 -9.15168 0.686072 4.37671
3 -5.19693 -7.65676 -4.28595
2 3.90003 -8.30625 4.37075
3 9.30223 -0.710646 -4.39228
1 3.9726 6.85847 6.51732
1 -3.91009 6.94523 -6.43497
3 -7.82403 -0.00436309 6.61475
2 -3.852 -6.92325 -6.38113
1 4.05226 -6.8322 6.45461
2 7.94066 0.0720359 -6.4971
2 2.68309 6.10031 8.56506
1 -3.90789 5.2709 -8.52862
1 -6.55458 -0.714303 8.74556
2 -2.53876 -6.12747 -8.63462
3 3.90852 -5.37317 8.60422
3 6.5204 0.810775 -8.65893
2 15.8922 0.0282694 -0.0968993
1 7.97004 13.8333 0.0280091
2 -8.05348 13.9112 0.000188125
3 -16.0316 -0.0504856 -0.111573
2 -7.97342 -13.835 0.0580335
3 8.08162 -13.8279 0.140951
2 7.92389 -4.57497 13.0468
2 -0.0557089 9.24313 13.0362
1 -8.0288 -4.55598 13.0752
2 0.10367 -9.20527 -13.0518
2 8.01205 4.67545 -13.0515
3 -8.0208 4.5154 -13.102
1 14.6121 2.31264 -0.0677265
2 14.6017 -0.83852 2.11401
1 14.5632 0.75928 -2.20104
1 5.29214 13.7442 -0.0392969
2 6.7045 13.0904 2.167
2 7.85317 12.2847 -2.13664
2 -9.29316 11.5248 -0.109003
2 -6.72532 13.072 2.12543
2 -7.94784 12.3598 -2.21988
3 -14.7315 -2.29149 -0.0641629
1 -14.6627 -0.722273 2.20487
3 -14.701 0.795908 -2.17891
1 -5.37187 -13.7593 -0.055657
3 -7.86338 -12.1927 2.22293
1 -6.63063 -13.0006 -2.25217
3 9.14734 -11.6571 0.0656242
3 7.89846 -12.2146 2.07488
3 6.74182 -12.9992 -1.99665
3 6.60481 -2.3139 12.9744
1 5.42322 -4.65214 12.9984
2 -1.31434 6.93231 12.9831
1 1.35411 -6.84506 -13.0345
2 -1.20536 -6.85198 -13.0483
1 5.24408 4.55706 -13.026
3 13.333 4.60412 -0.110981
2 13.2136 -1.46651 4.33456
3 13.2586 1.5442 -4.39191
3 2.67048 13.7463 -0.084077
2 5.31303 12.3095 4.41092
1 7.98793 10.7514 -4.27935
3 -10.5129 9.29402 -0.0716451
2 -5.3562 12.1957 4.31213
1 -7.88896 10.7512 -4.32107
2 -13.3937 -4.53733 -0.00975932
3 -13.1885 -1.5315 4.42351
2 -13.2222 1.56095 -4.35862
1 -2.65314 -13.7589 0.0164455
2 -7.96864 -10.7897 4.37823
2 -5.24251 -12.2399 -4.38909
3 10.5338 -9.16317 -0.0557899
2 8.02584 -10.7659 4.27051
2 5.35449 -12.1786 -4.26929
3 5.31464 -0.0396821 12.8917
1 2.75801 -4.6826 13.0233
3 -2.55331 4.54312 13.0019
2 2.63834 -4.56461 -13.093
1 -2.5328 -4.51887 -13.0409
2 2.68952 4.57092 -13.1088
2 11.9827 6.80368 0.00119629
1 11.9231 -2.22777 6.53222
1 11.9152 2.29376 -6.52905
1 0.0716022 13.7636 -0.00261666
2 3.99943 11.541 6.4891
1 8.08384 9.15135 -6.54734
1 -11.8863 6.92024 -0.0126207
2 -4.00353 11.4818 6.47195
2 -7.86333 9.21994 -6.5643
3 -12.0403 -6.93958 0.134975
2 -11.8752 -2.33045 6.48027
3 -11.9002 2.31229 -6.52561
2 0.159419 -13.8454 0.0863446
3 -7.90643 -9.26322 6.55454
1 -3.91187 -11.5309 -6.55148
1 11.9421 -6.89733 -0.0132596
1 7.93644 -9.18788 6.4489
2 4.06139 -11.5499 -6.48075
2 4.00519 2.20791 12.9988
2 0.104567 -4.72539 13.0523
1 -3.95187 2.25439 12.9199
2 3.96574 -2.321 -13.0005
3 -3.96286 -2.33599 -13.0278
3 0.0871822 4.54589 -12.9284
3 10.6651 9.15805 -0.00979222
1 10.5583 -3.0443 8.74096
3 10.5562 3.0415 -8.64459
2 -2.61574 13.7675 0.0443845
2 2.63422 10.669 8.74144
2 8.01628 7.73485 -8.7662
2 -13.2334 4.58675 -0.00583011
2 -2.61123 10.6833 8.69667
2 -7.93648 7.71988 -8.75232
1 -10.6719 -9.2044 0.103459
2 -10.5933 -3.03941 8.75169
2 -10.5875 3.11345 -8.64498
3 2.71967 -13.8298 0.0802413
1 -7.93161 -7.69117 8.61657
2 -2.65803 -10.7924 -8.69376
3 13.3395 -4.55157 -0.0436823
3 7.87413 -7.63009 8.66716
2 2.6938 -10.7376 -8.65643
2 2.60589 4.70193 13.0432
2 -2.59437 -4.6176 13.0632
3 -5.28595 0.0243457 12.9387
2 5.3067 -0.0390144 -12.9304
2 -5.22805 -0.0212932 -13.0113
2 -2.67865 4.57456 -12.8804
3 9.25892 11.4847 -0.023281
3 9.20927 -3.82868 10.8518
1 9.2776 3.87904 -10.7934
2 -5.34631 13.865 0.0899972
2 1.22826 9.9846 10.8358
3 7.98504 6.22584 -10.8699
1 -14.6342 2.20497 -0.0426377
3 -1.33246 9.88783 10.9067
1 -7.95426 6.111 -10.8662
1 -9.28873 -11.5482 -0.00229321
3 -9.23938 -3.76678 10.8998
3 -9.24263 3.76537 -10.8392
2 5.40939 -13.8345 0.0656729
1 -7.90256 -6.1641 10.8968
3 -1.25095 -9.98112 -10.8899
2 14.6183 -2.25564 -0.103658
1 7.98366 -6.11924 10.9509
1 1.34267 -9.93699 -10.7714
3 1.27459 6.94648 12.9752
2 -5.37065 -4.71193 12.9965
2 -6.64131 -2.32825 13.0988
2 6.67255 2.32753 -13.0405
2 -6.64446 2.29006 -12.969
3 -5.32703 4.53893 -13.0558
3 13.2272 3.1333 -2.1871
2 4.00624 12.9248 2.05881
2 -9.24828 9.96258 -2.23871
3 -13.267 -2.99768 2.17966
3 -3.84901 -12.9863 -2.22413
2 9.2605 -9.96614 2.0407
1 4.08846 -2.30176 12.9336
3 0.0653459 -4.47733 -13.0375
2 11.9587 3.84409 -4.33252
2 2.54732 12.1851 4.27102
1 -9.19936 8.37322 -4.36235
3 -11.7703 -3.87224 4.37204
3 -2.61822 -12.2342 -4.25432
2 9.25755 -8.38766 4.27029
2 1.47586 -2.34752 12.8649
3 -1.25505 -2.33455 -13.0355
3 10.589 4.56803 -6.42601
3 1.3484 11.3396 6.52059
2 -9.22387 6.92131 -6.54637
3 -10.5466 -4.61588 6.62888
1 -1.27929 -11.4329 -6.37133
2 9.24819 -6.77384 6.51965
1 -1.25904 -2.28247 12.9776
3 -2.64631 -0.118905 -13.0732
2 9.28424 5.39511 -8.6558
3 -0.0224934 10.6644 8.57887
1 -9.25697 5.35076 -8.63822
3 -9.28633 -5.344 8.69928
2 -0.0258653 -10.6983 -8.62673
1 9.21196 -5.38849 8.73037
3 -3.98981 -2.32839 13.0101
2 -3.94411 2.26583 -12.9128
2 13.196 1.53345 2.12118
3 5.31755 12.2498 -2.2362
2 -7.99183 10.6705 2.06998
1 -13.3872 -1.42813 -2.11431
1 -5.27123 -12.2044 2.18223
3 7.96292 -10.6993 -2.07223
3 11.9824 0.834545 4.31984
1 5.39109 10.7501 -4.33036
1 -6.63572 9.94941 4.36855
2 -11.8863 -0.756263 -4.34616
2 -5.26436 -10.8006 4.39346
3 6.6317 -9.86231 -4.39588
3 10.6275 0.0558432 6.53144
3 5.37092 9.1077 -6.43649
3 -5.23812 9.22034 6.59802
1 -10.5619 -0.0408073 -6.47637
3 -5.20734 -9.27656 6.54602
2 5.31161 -9.18473 -6.51304
3 9.27669 -0.749895 8.675
2 5.37301 7.57725 -8.58547
2 -3.98488 8.39836 8.74886
2 -9.28806 0.840727 -8.73415
2 -5.31067 -7.72574 8.56764
2 3.96801 -8.47585 -8.60724
1 7.91673 -1.56629 10.7471
1 5.27503 6.11245 -10.8295
3 -2.69584 7.66719 10.9044
2 -7.92339 1.52893 -10.819
3 -5.24959 -6.1679 10.8024
2 2.65277 -7.59541 -10.7942
3 12.0718 5.35747 -2.16689
3 1.40981 12.9975 2.15726
1 -10.6453 7.6668 -2.21798
2 -11.9889 -5.36313 2.29506
2 -1.27359 -12.9232 -2.15224
2 10.5793 -7.62222 2.106
1 2.71156 -0.0747891 12.8972
3 1.30127 -2.2444 -13.0397
3 10.6181 6.14679 -4.32052
1 -0.0486141 12.1773 4.32338
2 -10.6403 6.15922 -4.39566
3 -10.4925 -6.19722 4.40712
3 0.040583 -12.145 -4.27527
3 10.532 -6.07323 4.30457
2 0.0121872 -0.0981599 12.8867
2 0.082092 0.00862237 -12.9619
2 9.29914 6.86799 -6.50277
3 -1.36085 11.4875 6.49774
3 -10.575 4.6449 -6.50957
2 -9.16732 -6.85018 6.53654
1 1.38215 -11.3973 -6.41685
1 10.5189 -4.56078 6.50164
3 -2.58742 -0.0101068 12.9998
1 -1.28347 2.21129 -12.842
3 11.8409 3.89223 2.11689
2 2.70395 12.2969 -2.14152
3 -9.2263 8.42781 2.1319
1 -11.9372 -3.75632 -2.1493
1 -2.60419 -12.2702 2.29168
3 9.25477 -8.38945 -2.13258
2 10.6663 3.07667 4.3071
1 2.77955 10.6454 -4.33006
3 -7.97766 7.66886 4.33189
3 -10.5271 -3.00047 -4.35783
2 -2.56829 -10.7244 4.34402
2 7.99109 -7.73487 -4.31397
1 9.27065 2.24921 6.40856
2 2.79985 9.17607 -6.44405
2 -6.55613 6.9812 6.44059
3 -9.21428 -2.34941 -6.42684
3 -2.60618 -9.27858 6.63962
1 6.56178 -6.90076 -6.53674
1 7.95437 1.56084 8.6522
2 2.68668 7.50429 -8.60537
2 -5.29015 6.0196 8.67092
2 -7.84934 -1.59743 -8.66131
2 -2.58121 -7.81077 8.63001
2 5.23394 -6.14604 -8.67124
1 6.59231 0.750233 10.737
2 2.72255 6.08364 -10.8592
2 -4.00108 5.341 10.9114
1 -6.5071 -0.852099 -10.8495
2 -2.587 -6.20614 10.8244
1 3.92493 -5.278 -10.8547
2 10.6791 7.64051 -2.1754
3 -1.28102 13.0467 2.16824
3 -11.9894 5.33876 -2.26848
2 -10.6439 -7.65567 2.21344
2 1.35154 -13.0001 -2.08641
3 11.8749 -5.35382 2.14423
2 1.39613 2.29853 12.9308
3 2.66511 -0.0036567 -12.9855
2 9.33055 8.43727 -4.30982
2 -2.6017 12.2671 4.32084
1 -11.9264 3.81428 -4.4103
2 -9.24243 -8.4464 4.45362
2 2.65363 -12.1753 -4.33325
1 11.9318 -3.70574 4.29003
2 -1.3039 2.2885 13.0139
1 1.35905 2.27509 -12.9473
3 10.6595 6.07439 2.17324
2 0.00431181 12.1584 -2.05107
2 -10.571 6.19205 2.06321
2 -10.6722 -6.16391 -2.07701
2 -0.00277604 -12.2657 2.18487
1 10.5711 -6.06336 -2.16402
3 9.24888 5.27035 4.41951
2 0.0494734 10.6876 -4.19827
2 -9.22925 5.43479 4.38105
2 -9.20015 -5.28925 -4.44995
2 0.0372208 -10.6964 4.38885
1 9.297 -5.30388 -4.38081
2 7.93701 4.50763 6.47334
2 0.0828905 9.1849 -6.42495
2 -7.99816 4.58461 6.67239
2 -7.82378 -4.56481 -6.576
2 0.0163712 -9.25412 6.61227
2 7.89127 -4.59636 -6.57986
3 6.64792 3.8189 8.52487
2 0.0397798 7.6033 -8.61794
3 -6.62893 3.81706 8.67993
1 -6.50344 -3.89003 -8.64552
2 0.0694599 -7.71852 8.69046
3 6.64233 -3.81866 -8.70428
2 5.32233 3.03972 10.7003
2 0.0323779 6.00544 -10.7968
1 -5.28089 3.06859 10.78
1 -5.14703 -3.15388 -10.8753
3 0.0606653 -6.14321 10.7835
2 5.40306 -2.99722 -10.9317
2 9.30504 10.0418 -2.11463
1 -3.9939 13.0636 2.12918
2 -13.3461 3.06617 -2.16717
2 -9.38073 -10.0501 2.2862
2 4.0227 -13.0087 -2.08027
2 13.1224 -3.07468 2.10869
2 0.00153583 4.68362 13
2 3.97196 2.2548 -12.9688
2 9.34678 8.3412 2.16759
2 -2.58304 12.2939 -2.1019
3 -11.8082 3.84639 2.21746
1 -9.24932 -8.38562 -2.15483
2 2.80728 -12.2731 2.25245
3 12.0107 -3.7977 -2.1767
3 8.00501 7.62743 4.27348
2 -2.57434 10.6733 -4.32435
3 -10.5312 3.14237 4.37245
1 -7.88177 -7.63073 -4.39991
1 2.6955 -10.6449 4.30231
2 10.6768 -3.03209 -4.30342
2 6.59897 6.92716 6.46913
3 -2.60109 9.2245 -6.42685
3 -9.20826 2.28083 6.52368
2 -6.53944 -6.96733 -6.49557
1 2.63858 -9.13881 6.489
1 9.24715 -2.25348 -6.51366
3 5.35859 6.08891 8.60437
1 -2.57833 7.70515 -8.62061
3 -7.90641 1.45817 8.66369
1 -5.24354 -6.24077 -8.70895
1 2.68429 -7.65152 8.73862
2 7.87042 -1.47738 -8.70414
1 3.8604 5.36491 10.7304
2 -2.67565 6.09993 -10.7598
2 -6.66708 0.762279 10.7681
1 -3.93078 -5.3962 -10.8777
2 2.67739 -6.14294 10.8849
1 6.63185 -0.634102 -10.8955
2 7.95311 10.8268 2.17512
2 -5.26471 12.276 -2.14102
2 -13.213 1.56794 2.1736
2 -8.00267 -10.7124 -2.23278
3 5.39466 -12.2607 2.17437
2 13.2711 -1.5527 -2.20772
3 6.63868 10.0034 4.33637
2 -5.33404 10.7739 -4.39106
1 -11.8252 0.726859 4.42089
1 -6.62988 -9.96214 -4.34402
2 5.33863 -10.7456 4.31787
1 11.9456 -0.73285 -4.41567
3 5.33003 9.22703 6.5672
3 -5.28521 9.31379 -6.43477
2 -10.4358 0.0135829 6.58522
1 -5.23672 -9.23921 -6.54847
2 5.36188 -9.1508 6.55837
2 10.6712 0.0852661 -6.56109
1 3.93851 8.37652 8.74498
1 -5.28476 7.72947 -8.60883
2 -9.27461 -0.726845 8.71681
2 -4.06414 -8.55611 -8.74072
3 5.31802 -7.6701 8.74477
2 9.28825 0.78129 -8.77979
2 2.62759 7.74027 10.9424
1 -5.24486 6.111 -10.8593
2 -7.96044 -1.53312 10.9176
1 -2.54755 -7.65414 -10.8421
1 5.28047 -6.14034 10.7926
2 7.97534 1.49741 -10.8534
1 18.6542 -0.0129538 -0.0690083
1 9.4049 16.209 0.0799991
3 -9.3595 16.2226 0.0413961
2 -18.7368 0.102002 0.000640017
2 -9.4299 -16.2342 -0.0672849
2 9.4452 -16.1727 0.0454037
3 9.34557 -5.3507 15.2694
3 0.0181154 10.8036 15.1725
2 -9.32669 -5.41837 15.1297
2 0.046614 -10.8503 -15.3634
1 9.45425 5.38902 -15.2991
2 -9.40905 5.35255 -15.1717
3 17.3324 2.24734 -0.0627357
3 17.2537 -0.861711 2.1666
1 17.3561 0.770443 -2.23434
3 6.67395 16.1106 -0.0232516
2 7.99416 15.3966 2.13613
2 9.33652 14.6077 -2.05047
3 -10.6982 13.8785 -0.0366226
2 -8.04703 15.501 2.26052
1 -9.32399 14.6908 -2.15134
3 -17.3074 -2.21351 -0.102423
1 -17.3843 -0.70972 2.20144
3 -17.361 0.755972 -2.1874
3 -6.67774 -16.2089 -0.0422116
1 -9.34034 -14.5713 2.14068
1 -8.05657 -15.4026 -2.16939
2 10.7275 -13.866 0.0613026
2 9.29355 -14.6197 2.25365
1 8.12109 -15.3831 -2.05426
3 8.03514 -3.16604 15.1567
2 6.76836 -5.4629 15.2004
2 -1.28298 8.41759 15.1897
3 1.34464 -8.46614 -15.3101
2 -1.24197 -8.51948 -15.2736
1 6.64294 5.39541 -15.2085
2 15.9387 4.50301 -0.150369
2 15.935 -1.4996 4.29944
3 15.8742 1.5054 -4.40152
2 4.01138 16.101 0.00106031
1 6.73336 14.5947 4.27523
2 9.30052 12.9851 -4.34491
2 -11.9836 11.6124 0.0598443
1 -6.65132 14.6049 4.35478
3 -9.40389 13.1179 -4.31567
3 -16.0116 -4.569 0.0029541
2 -15.8465 -1.51828 4.37478
1 -15.9907 1.65083 -4.30266
1 -4.00717 -16.1833 -0.0579772
3 -9.31489 -12.988 4.36606
2 -6.68034 -14.7349 -4.41803
2 11.8615 -11.466 -0.0626799
1 9.27682 -13.0882 4.38287
1 6.74934 -14.5381 -4.222
1 6.70723 -0.766749 15.1145
2 3.99076 -5.42791 15.2859
1 -2.68212 6.11775 15.2139
3 2.67046 -6.13851 -15.2694
1 -2.65548 -6.17847 -15.1243
3 3.96759 5.40699 -15.1841
3 14.5745 6.75841 0.0651089
1 14.6403 -2.27269 6.49674
1 14.5533 2.28292 -6.5293
3 1.34582 16.2251 0.0334309
1 5.25489 13.818 6.47213
3 9.32793 11.518 -6.50042
1 -13.2476 9.24829 -0.00154049
2 -5.34639 13.8354 6.48667
1 -9.27663 11.599 -6.52697
3 -14.5253 -6.93343 0.0679036
2 -14.5994 -2.33058 6.56445
1 -14.5767 2.47353 -6.47239
2 -1.26674 -16.2459 -0.00784537
2 -9.34873 -11.4985 6.54569
2 -5.31348 -13.8762 -6.61056
1 13.2452 -9.15187 -0.0606979
3 9.25298 -11.5657 6.46893
1 5.27826 -13.77 -6.39201
3 5.26892 1.52756 15.1254
3 1.37706 -5.53707 15.2025
1 -4.02271 3.74932 15.1899
3 4.05525 -3.85121 -15.2565
2 -4.00168 -3.89348 -15.0923
3 1.32832 5.36394 -15.327
2 13.2266 9.1582 -0.0206494
2 13.3675 -3.12304 8.6755
3 13.2817 3.00605 -8.64347
2 -1.23779 16.1604 -0.015833
1 3.95002 12.9682 8.62825
3 9.36563 9.98559 -8.71723
2 -14.6449 6.86175 0.0163619
2 -3.94562 12.9556 8.7092
3 -9.34309 10.0704 -8.69314
3 -13.2524 -9.18003 0.044638
2 -13.2081 -3.11237 8.70178
2 -13.3462 3.17323 -8.546
3 1.42423 -16.0817 -0.0642621
2 -9.282 -10.0093 8.76437
3 -3.99453 -13.0931 -8.70604
2 14.6604 -6.9125 -0.0456807
1 9.27108 -9.99815 8.69795
3 3.97587 -13.0099 -8.68212
2 3.89814 3.81317 15.1777
3 -1.23644 -5.36714 15.2523
1 -5.29613 1.44104 15.2835
2 5.41751 -1.51305 -15.2163
1 -5.30546 -1.59824 -15.1655
2 -1.19569 5.28841 -15.1033
2 11.9951 11.5592 0.00396204
3 11.985 -3.90358 10.9062
2 11.9346 3.97877 -10.7231
1 -4.07912 16.0967 0.143143
3 2.50514 12.2475 10.83
3 9.26566 8.51248 -10.8815
3 -16.0067 4.56765 -0.0621836
3 -2.64817 12.211 10.7473
2 -9.35035 8.46886 -10.9056
2 -12.0223 -11.5351 0.0751661
1 -11.8911 -3.82031 10.9189
1 -11.9398 3.7498 -10.8519
3 4.09565 -16.0765 -0.0340701
3 -9.25802 -8.40801 10.9227
1 -2.64533 -12.3023 -10.8578
2 15.9062 -4.60781 -0.0127301
1 9.27034 -8.41633 10.9206
1 2.56254 -12.2932 -10.9723
1 2.52516 6.2081 15.2107
2 -3.86442 -5.33936 15.238
3 -6.69338 -0.775291 15.2208
1 6.75459 0.906726 -15.3451
1 -6.63322 0.732426 -15.2042
1 -3.96794 5.36403 -15.1473
2 10.6933 13.8146 0.0624987
2 10.5951 -4.55892 13.1082
2 10.7149 4.75295 -12.9964
2 -6.68901 16.1929 0.114754
2 1.30041 11.5971 13.0145
2 9.22594 6.9652 -13.1567
2 -17.3932 2.30614 0.00907527
3 -1.28806 11.5526 12.9846
3 -9.29908 6.87827 -13.0402
3 -10.6899 -13.8674 0.00851756
3 -10.6157 -4.58259 13.1449
2 -10.6109 4.52943 -12.9907
1 6.69815 -16.1958 0.0437876
3 -9.25769 -6.92976 13.0756
1 -1.27625 -11.5449 -13.1125
3 17.1798 -2.26763 -0.0204455
2 9.33045 -6.90778 13.1674
2 1.31219 -11.653 -13.1583
3 1.30741 8.45288 15.3073
2 -6.6912 -5.42692 15.2495
2 -8.05631 -3.0413 15.2714
2 7.99865 3.16439 -15.2959
2 -8.02604 2.98274 -15.1393
2 -6.68294 5.31971 -15.1197
3 16.0976 3.04437 -2.23361