2891
 Atoms. Timestep: 6000
2 -0.0552098 0.0917524 -0.0441904
3 2.58542 0.068288 -0.299826
2 1.19848 2.50115 -0.0714903
2 -1.28115 2.31818 0.00939879
3 -2.70561 0.0745156 0.0586874
2 -1.38686 -2.39189 -0.00464435
2 1.39396 -2.38861 -0.29186
1 1.21106 -0.746178 2.14909
3 -0.124358 1.42167 2.20784
2 -1.32562 -0.932484 2.1098
3 1.33124 0.712472 -2.25509
2 -1.29379 0.807123 -2.29083
2 5.2226 -0.121254 0.0604583
1 -2.65611 4.7674 -0.0142696
3 -5.19419 0.041443 -0.338113
1 -2.51086 -4.79582 -0.0675425
2 3.07274 -4.69746 -0.0905212
1 2.75266 -1.5561 4.21673
3 -0.10729 3.01234 4.45129
2 -2.88714 -1.54144 4.42039
1 0.037186 -3.23523 -4.29678
1 2.7103 1.61956 -4.42043
2 -2.8513 1.57547 -4.47005
2 4.09598 2.53842 -0.117481
2 3.70745 -0.633408 1.97121
2 4.06249 0.83187 -2.36199
1 0.22797 4.77254 -0.185576
2 1.17902 4.00308 2.30089
2 2.88392 3.19355 -2.17825
1 -3.99177 2.30767 0.0236392
2 -1.32924 4.02173 2.3028
1 -2.63992 3.21109 -2.23181
2 -3.98269 -2.35886 0.0433858
2 -4.0063 -0.83396 2.15308
3 -3.81453 0.94434 -2.30357
2 0.318377 -4.71242 0.0857183
2 -2.61255 -3.23619 2.26102
2 -1.33883 -3.79338 -2.03866
3 3.88737 -2.34115 -0.0798891
3 2.61843 -3.09852 2.25014
2 1.41086 -3.89986 -2.19124
1 1.49364 0.869941 4.35124
2 0.123009 -1.40381 4.28191
1 -1.27493 0.716902 4.42962
1 1.4041 -0.686627 -4.39678
2 -1.26769 -0.814162 -4.48648
1 0.138263 1.55098 -4.40546
2 2.74169 1.62759 2.04403
1 0.172154 3.22113 -2.37087
1 -2.57511 1.45384 2.35268
1 -2.77749 -1.51708 -2.26176
3 0.0437709 -3.15365 2.37388
3 2.6495 -1.50816 -2.28438
2 8.05269 0.191618 -0.149468
1 3.89974 6.95306 -0.0563846
2 -3.91636 7.04366 0.111318
1 -4.0297 -7.10755 0.233658
2 4.16804 -7.17724 0.0287815
2 3.99236 -2.01356 6.58589
1 -0.159899 4.44529 6.64086
2 -4.20131 -2.31644 6.40252
3 0.0626846 -4.64765 -6.5557
2 4.10922 2.18194 -6.89166
2 -4.15749 2.2738 -6.63998
2 6.68572 2.42796 -0.010753
3 6.53702 -0.717738 2.19585
1 6.64629 0.786448 -2.47284
2 1.35747 6.97907 -0.177349
3 2.39682 6.25627 2.18812
3 4.12587 5.58706 -2.68262
2 -5.50242 4.6297 0.00413559
1 -2.85763 6.13783 2.55536
2 -4.08778 5.7273 -2.25123
2 -6.65238 -2.19793 0.0935167
1 -6.52391 -0.598755 2.10886
2 -6.62047 0.810749 -2.19003
2 -3.89172 -5.44148 2.13376
2 -2.51012 -6.48361 -2.25211
1 5.52176 -4.75097 -0.183596
2 4.32292 -5.3946 2.21376
3 2.92219 -6.37844 -2.02031
1 2.87765 0.299037 6.82343
2 1.49509 -2.28128 6.3581
2 -1.18915 2.21025 6.76581
1 1.30585 -2.39446 -6.5889
1 -1.36007 -2.3566 -6.4633
1 5.4509 4.77787 -0.130267
1 5.44193 -1.67144 4.44564
3 5.36278 1.69834 -4.682
2 -1.06985 6.94147 -0.16646
1 3.87994 3.94842 -4.43162
1 -6.93744 2.29594 -0.0228775
2 -1.36574 5.3395 4.56628
2 -4.1628 3.80536 -4.43516
3 -5.08189 -4.6156 0.0498089
3 -5.52113 -1.784 4.38556
3 -5.50918 1.47681 -4.49629
2 1.52174 -7.16001 -0.0919329
3 -4.17283 -3.97204 4.29388
1 -1.20695 -5.5435 -4.31195
1 6.60555 -2.23357 0.0500377
1 4.0701 -3.88907 4.35923
1 1.55151 -5.57244 -4.40829
2 1.43924 2.09414 6.51679
1 -1.33756 -2.17456 6.49327
2 2.59531 0.221141 -6.63853
2 -2.60709 0.0438515 -6.9041
2 -1.47696 2.5681 -6.79337
2 5.5231 3.11256 -2.40469
2 -0.344368 6.40411 2.28467
1 -5.55588 3.06247 -2.26219
3 -5.16175 -3.1061 2.09801
2 0.196125 -6.33615 -2.09935
2 5.46103 -3.10212 2.12294
1 0.343601 -0.133796 6.79731
2 0.00288337 0.137166 -6.59699
1 5.31322 1.58015 2.12362
1 1.39115 5.45367 -2.40341
2 -3.96185 3.82713 2.21119
2 -1.28429 -5.57231 2.32909
3 4.14245 -3.92423 -2.3223
1 4.14144 0.831486 4.48672
1 1.2239 3.92256 -4.91768
2 -2.65743 2.8497 4.5083
2 -3.90318 -0.796364 -4.37464
2 -1.29689 -4.05115 4.44595
1 2.7602 -3.19192 -4.42736
2 3.88207 3.86606 2.16092
3 -1.34246 5.41785 -2.20734
2 -5.23058 1.52806 1.92747
3 -3.98933 -3.97806 -1.99394
2 1.56582 -5.48967 2.24992
1 5.23738 -1.5152 -2.21634
3 2.62954 3.07397 4.42564
3 -1.54766 3.87433 -4.43099
1 -4.102 0.55432 4.57977
2 -2.65533 -3.12573 -4.31104
2 1.55611 -4.19512 4.47921
2 10.885 -0.102673 0.175519
1 5.22291 9.55088 0.0712962
3 -5.18668 9.34082 -0.0347709
2 -10.9538 -0.019136 0.0234666
2 -5.21295 -9.48138 0.0846062
1 5.43964 -9.50491 0.136332
2 5.37755 -3.12225 8.60258
2 -0.0393665 6.25326 8.78791
2 -5.13096 -3.2431 8.69153
3 0.0511204 -6.30631 -8.81576
1 5.40772 3.09833 -9.09634
2 -5.40939 3.1468 -8.83846
2 9.43082 2.31089 -0.115763
2 9.07761 -0.662077 2.16558
1 9.3532 0.922326 -2.37208
1 2.61034 9.3444 -0.211404
1 3.8488 8.52296 2.18291
2 5.48163 7.96244 -2.41487
2 -6.68231 6.85468 -0.064155
1 -4.06588 8.45235 2.22904
1 -5.38173 7.87519 -2.02927
3 -9.38058 -2.35597 -0.0168871
2 -9.27067 -0.900507 2.13783
3 -2.6198 -9.29458 0.0194273
1 -5.27436 -7.79396 2.24674
1 -4.09395 -8.45534 -2.02235
2 5.56078 -7.93375 2.38407
1 4.31881 -8.55258 -2.02196
2 3.96864 -0.795631 8.86212
2 2.71035 -3.07733 8.76688
2 -1.40024 3.73422 8.91671
2 1.34096 -3.95765 -8.75524
2 -1.25726 -3.94566 -8.69754
2 2.71973 3.11502 -8.89031
3 8.06558 4.56539 -0.244754
1 8.04827 -1.44217 4.354
3 8.02656 1.49096 -4.68666
3 -0.00648757 9.36597 -0.192014
3 2.44988 7.66116 4.38218
2 5.48891 6.28586 -4.6363
3 -8.24736 4.7088 0.00998933
1 -5.28912 6.24445 -4.50533
1 -7.72026 -4.60979 0.0756325
1 -8.05404 -1.33918 4.28876
2 -8.14295 1.67949 -4.23016
1 0.0855268 -9.42486 0.00424078
1 -5.37847 -6.10755 4.23761
3 -2.68105 -7.73801 -4.42275
3 8.13926 -4.53259 -0.202824
2 5.41298 -6.44052 4.47318
1 3.00626 -7.96066 -4.34736
1 0.332314 -2.97105 8.57549
2 -2.7019 1.45788 8.64898
2 2.71842 -1.31386 -8.87776
2 -2.62227 -1.52982 -8.86742
3 -0.0520191 3.07197 -8.98727
2 6.32956 7.00528 -0.153425
3 6.73563 -2.4796 6.55912
1 6.70761 2.36651 -6.90352
2 -2.57446 9.33073 -0.1249
3 1.33568 6.69785 6.60427
1 5.38057 4.64478 -6.681
2 -9.41651 2.35344 -0.00242137
1 -1.53392 6.92865 6.52637
2 -5.70146 4.71909 -6.64583
1 -6.57751 -7.00882 -0.0929699
2 -6.94528 -2.34441 6.50224
3 -6.91972 2.44451 -6.71712
2 2.89232 -9.45204 -0.119412
3 -5.42656 -4.88012 6.60624
1 -1.2447 -7.00431 -6.68197
2 9.52317 -2.28331 0.0347232
1 5.51128 -4.82929 6.65694
3 1.46763 -7.03308 -6.42673
2 1.34643 3.81774 8.52983
2 -2.55465 -2.94384 8.55763
3 -4.0844 -0.754226 8.91429
3 4.28171 0.752799 -9.09382
2 -4.03729 0.808498 -8.95651
3 -2.714 3.1479 -8.85817
3 8.08849 3.12701 -2.47431
1 1.23162 8.74338 2.0986
2 -6.86729 5.3287 -2.32099
2 -7.87488 -3.24662 2.17704
2 -1.26862 -8.52887 -1.97668
1 6.98538 -5.58609 2.02858
1 0.0950512 -1.35976 -8.80967
2 6.94629 3.94511 -4.53268
3 -0.196225 7.82348 4.41452
3 -6.81119 3.89793 -4.41543
2 -6.68024 -3.99923 4.57507
2 -0.10417 -7.8406 -4.34015
2 6.94288 -3.67313 4.45571
1 -1.14528 -0.669582 8.78426
3 -1.40491 0.745895 -9.03023
3 7.97563 1.64576 2.11157
2 2.75272 7.6615 -2.38925
3 -5.34197 6.01622 2.10959
2 -8.17371 -1.66756 -2.01497
1 -2.43343 -7.75396 2.12122
3 5.38386 -6.28623 -2.2775
1 6.72259 0.760959 4.43092
1 2.5338 6.28659 -4.63252
2 -6.85664 -0.989955 -4.19835
3 -2.70514 -6.37553 4.41797
3 4.10987 -5.52119 -4.39943
2 5.44456 0.0835895 6.63777
3 2.72708 4.61974 -6.66918
1 -2.94582 4.7559 6.39043
1 -5.5487 0.144827 -6.57065
2 -2.88055 -4.69439 6.50409
1 2.77028 -4.72712 -6.64883
2 6.85833 5.49204 -2.37932
1 -1.51276 8.48473 2.21168
3 -8.26294 3.21135 -2.13268
1 1.5756 -8.59024 -2.1084
1 8.06419 -3.07869 2.22059
3 0.319019 1.49504 8.95195
2 1.21465 0.862264 -8.88782
1 6.76836 4.0213 1.98117
3 0.163147 7.7726 -2.24198
3 -6.59891 3.7882 2.09243
3 -6.73712 -3.79775 -2.15118
3 0.142805 -7.78664 2.22898
3 6.69766 -3.68965 -2.29492
2 5.22587 3.1308 4.37805
3 -0.088675 6.3595 -4.52276
1 -5.36817 3.10761 4.23187
1 -5.28943 -3.1524 -4.33043
2 0.124148 -6.49234 4.32188
2 5.29556 -3.24782 -4.51632
3 4.06424 2.51493 6.58983
1 -4.13365 2.44915 6.48593
1 -4.02411 -2.27978 -6.4544
2 0.144037 -4.88945 6.55152
2 4.12679 -2.42592 -6.77719
2 5.19821 6.22354 2.02655
2 -2.58614 7.93817 -2.3039
2 -8.16367 1.68665 2.1816
3 -5.34235 -6.28483 -2.1879
1 2.65958 -8.22437 2.22807
1 8.24098 -1.37338 -2.38914
2 3.84771 5.5398 4.35473
2 -2.75937 6.20353 -4.48309
2 -4.06534 -5.48536 -4.25085
1 2.77594 -6.30821 4.41616
2 6.81631 -0.720103 -4.47888
3 2.60059 4.48136 6.59617
2 -2.63359 4.71156 -6.66188
3 -2.66046 -4.77762 -6.69327
1 2.87256 -4.88506 6.66883
1 5.45729 -0.104656 -6.59478
2 13.4613 0.0180909 -0.135321
3 6.71608 11.6371 -0.069028
2 -6.62092 11.6949 -0.0430838
2 -6.7397 -11.6976 -0.1412
3 6.56932 -11.8097 0.0745676
2 6.78893 -4.04315 11.2358
1 -0.191111 7.83965 10.8104
2 -6.52608 -3.89117 11.0279
1 0.0168566 -7.58255 -11.0745
2 6.73651 3.87324 -11.1553
2 -6.90101 3.94638 -11.0129
3 12.1808 2.22463 -0.0752738
2 12.1655 -0.63019 2.33359
2 12.1487 0.814896 -2.13371
2 3.90895 11.7114 -0.112815
2 5.36836 11.0473 2.1069
1 6.68175 10.1481 -2.35938
1 -7.91924 9.08611 0.0421509
1 -5.37487 10.9313 2.11753
3 -6.70092 10.2834 -2.13275
2 -12.0635 -2.34847 -0.00696905
2 -12.282 -0.957753 2.12546
1 -12.0412 0.817283 -2.15011
2 -3.90383 -11.7343 0.0206315
1 -6.71398 -10.159 2.08445
2 -5.34537 -10.9404 -2.18259
1 7.99218 -9.45828 0.145137
2 6.58372 -10.4253 2.14501
2 5.28195 -1.73008 10.7633
2 4.03132 -3.87759 11.0062
1 -1.3105 5.34206 11.0218
1 1.48173 -5.34256 -10.8917
2 -1.32206 -5.43002 -11.0243
2 4.06116 4.05317 -11.1964
1 10.5741 4.62061 0.0293365
3 10.539 -1.57502 4.48838
3 11.0238 1.69784 -4.3615
1 1.36824 11.7499 -0.370469
1 3.97094 10.0702 4.34818
1 6.87216 8.62604 -4.48988
2 -9.50892 6.85928 -0.0461926
1 -3.8561 10.0899 4.31395
2 -6.8217 8.75112 -4.48787
1 -10.5306 -4.68403 -0.151257
3 -10.8759 -1.76601 4.11365
3 -10.7461 1.44702 -4.41348
3 -1.311 -11.7274 0.0158988
2 -6.7852 -8.55492 4.18127
2 -4.19568 -9.96077 -4.37686
1 9.25407 -6.95322 -0.150579
1 6.63725 -9.18942 4.35213
3 3.93937 0.910918 10.9443
3 1.40098 -4.01873 10.8685
2 -2.69678 2.91692 11.3574
2 2.73006 -3.08895 -11.044
2 -2.78391 -3.15136 -10.8967
2 1.39007 3.98414 -11.1994
1 9.30274 6.92202 -0.0397851
2 9.38327 -2.45459 6.83139
2 9.45693 2.3929 -6.63595
2 -1.33481 11.6373 -0.349352
3 2.43907 9.24704 6.58277
2 6.69949 6.93318 -6.8223
1 -9.41652 4.13664 2.14578
1 -2.63377 9.40787 6.49964
2 -6.77879 7.02291 -6.72539
1 -9.35034 -7.07556 -0.154787
1 -9.49837 -2.36071 6.3741
1 -9.55929 2.38353 -6.46527
3 1.43492 -11.8118 -0.124542
1 -6.92258 -7.17406 6.64601
2 -2.61064 -9.20018 -6.82036
2 6.69028 -7.05764 6.46991
2 2.85525 -9.41121 -6.51791
2 2.6434 3.08276 10.773
1 -1.15135 -3.83019 10.7319
2 -3.96095 0.78843 10.9262
1 4.01926 -0.588503 -11.4079
2 -4.17782 -0.704532 -11.006
2 -1.50149 3.8558 -11.1823
1 7.93625 9.27381 -0.19763
2 7.92808 -3.26742 8.89675
3 8.23509 3.24409 -8.952
2 -4.08779 11.7394 -0.197645
1 1.29656 8.45606 8.42226
2 6.81144 5.4274 -9.05218
2 -12.1912 2.47823 -0.112791
2 -1.54879 8.49606 8.60419
3 -6.82465 5.53603 -8.93297
3 -8.13789 -9.48698 -0.347597
1 -7.99249 -3.23071 8.87746
2 -8.14751 3.19444 -8.78529
3 4.17272 -11.7982 -0.318602
2 -6.68086 -5.40687 8.90499
3 -1.27642 -8.37908 -8.86176
1 12.3046 -2.42007 0.180014
2 6.88359 -5.61833 8.7086
1 1.38682 -8.6709 -8.69401
2 1.31498 5.27146 10.9439
2 -3.8929 -4.02133 11.0225
2 -5.28845 -1.69032 10.8715
1 5.52498 1.60951 -11.153
2 -5.64847 1.49501 -11.1013
1 -3.98441 3.98511 -11.0885
1 10.6987 3.1275 -2.11962
3 2.73535 10.7422 2.00971
1 -8.13428 7.81762 -2.12502
2 -10.7158 -3.21197 2.09802
1 -2.6489 -10.8594 -2.33348
2 8.12222 -7.88206 1.89401
3 2.64322 -1.73015 10.9194
2 -0.0362747 -3.08129 -11.0129
1 9.58384 3.98405 -4.619
2 1.31151 10.0632 4.38365
1 -8.19489 6.43464 -4.21846
2 -9.35389 -3.91563 4.29049
2 -1.36499 -10.0257 -4.4991
2 8.24779 -6.38219 4.12183
3 0.0152181 -1.5271 10.8986
1 -1.48989 -0.974546 -10.9169
2 8.18525 4.75584 -6.7525
2 -0.134746 9.15136 6.57564
2 -8.15045 4.64623 -6.44036
1 -8.15794 -4.70622 6.62538
3 0.0783451 -9.37442 -6.40998
3 8.07849 -4.79076 6.61494
2 -2.48543 -1.63239 10.9441
2 -2.84269 1.53732 -11.076
3 10.5561 1.59606 2.27366
2 -6.59936 8.41913 2.20366
2 -10.7744 -1.85425 -2.28887
2 -3.86945 -9.9722 2.31875
1 6.93467 -8.42754 -1.97524
2 9.2808 0.683606 4.40921
1 3.8867 8.61556 -4.3615
3 -5.43917 7.89354 4.29119
2 -9.42623 -0.849626 -4.26053
1 -4.16323 -8.59037 4.48198
1 5.54777 -7.81168 -4.26524
3 8.14111 -0.0381057 6.85013
2 3.98532 6.94754 -6.6932
1 -4.12215 6.98201 6.51819
2 -8.10127 0.0549984 -6.60908
1 -4.10068 -7.10945 6.50431
1 4.214 -7.0755 -6.48173
1 6.66339 -0.695888 8.72964
2 4.18929 5.58128 -8.92706
1 -2.62538 6.15085 8.87648
1 -6.86426 0.864929 -8.70072
2 -4.2079 -5.68547 8.76669
2 2.69232 -6.25935 -8.88201
3 9.46047 5.39326 -2.25035
2 0.191982 10.9998 2.08196
2 -9.7769 5.41863 -2.26475
2 -9.1687 -5.51579 2.11432
2 0.17114 -10.8796 -2.09942
1 9.69442 -5.38626 1.87284
3 1.39167 0.683705 10.9612
2 1.28587 -0.847006 -11.1417
2 8.25489 6.37275 -4.71468
2 -1.31197 10.17 4.0677
3 -9.5087 4.00414 -4.44082
3 -8.07906 -6.19953 4.40184
3 1.22798 -9.99254 -4.35035
2 9.52459 -3.94858 4.30364
2 -1.14213 0.741172 10.9374
2 -0.0726999 1.55111 -11.0856
2 9.41147 3.93548 2.20227
2 1.44505 10.0106 -2.45166
2 -8.13905 6.14551 2.11017
2 -9.43592 -3.88102 -2.30565
3 -1.25356 -10.2086 2.15032
2 8.10411 -6.17852 -2.19205
2 8.06513 3.15593 4.39406
3 -6.78762 5.52454 4.32294
3 -1.36683 -8.70125 4.35742
2 6.90856 -5.31013 -4.32581
2 6.70933 2.41513 6.41378
2 1.43774 7.0765 -6.91712
2 -5.61671 4.85007 6.58955
2 -6.47888 -2.41756 -6.43823
1 -1.44303 -7.4158 6.50039
2 5.55417 -4.81541 -6.77185
3 5.41993 1.69574 8.66207
2 1.42628 5.37227 -9.00405
3 -3.95703 3.77809 8.75362
3 -5.30355 -1.42765 -8.85707
2 -1.44927 -5.53428 8.78921
1 4.05047 -3.86582 -8.90337
2 8.08729 7.73804 -2.23684
3 -2.66606 10.9125 1.9912
1 -10.8742 3.12157 -2.3194
3 -7.97366 -7.89954 2.07191
2 3.12447 -11.2578 -2.61922
2 10.8095 -2.9754 2.3273
3 0.0109147 3.01373 11.0756
2 2.6831 1.52462 -11.0955
2 7.91409 6.29887 1.99554
2 -1.1274 10.1384 -2.38836
3 -7.98384 -6.17997 -2.02454
2 1.41389 -10.2368 2.2065
2 9.37513 -3.79464 -2.43295
2 6.61012 5.54408 4.5423
2 -1.44384 8.59139 -4.69374
2 -8.21653 3.39927 4.20179
2 -6.89086 -5.44179 -4.46143
2 1.38716 -8.66117 4.60836
1 8.18218 -3.17781 -4.53867
1 5.50511 4.71577 6.60983
2 -1.2679 7.07743 -6.82522
2 -6.96477 2.44788 6.37159
1 -5.20704 -4.74828 -6.5914
1 1.41364 -7.2541 6.77675
2 6.75873 -2.30505 -6.649
2 4.18486 3.87603 8.61796
2 -1.24288 5.32164 -8.95662
2 -5.36533 1.75884 8.43138
2 -4.08317 -3.81647 -8.62616
1 1.29055 -5.41174 8.81738
2 5.63875 -1.75368 -8.95753
2 6.85852 8.70904 2.18368
1 -4.22648 10.2737 -2.26131
1 -10.9729 1.6648 2.19822
1 -6.91563 -8.49606 -2.2359
3 4.06772 -10.2454 2.11099
1 10.7291 -1.6178 -2.02889
2 5.38871 7.75833 4.45202
3 -4.06545 8.62 -4.40925
2 -9.43722 0.860497 4.49548
2 -5.48278 -7.77412 -4.22674
3 4.02118 -8.75069 4.33085
1 9.55002 -0.530181 -4.58383
2 3.83793 6.90766 6.51469
2 -3.9263 7.05554 -6.66064
1 -7.88791 0.0799519 6.46245
2 -3.9547 -6.89646 -6.53471
3 4.02025 -7.16387 6.70982
3 8.16151 0.0153259 -6.72451
2 2.68791 6.19159 8.757
1 -4.18373 5.43236 -8.6615
2 -6.74944 -0.817703 8.64579
1 -2.60749 -6.15483 -8.96199
3 4.10168 -5.52008 8.86745
1 6.93155 0.948939 -9.14866
2 16.4052 -0.111371 0.0802173
2 8.258 14.1537 -0.0337917
2 -8.07422 13.9657 -0.0195791
2 -16.4206 0.158463 0.235714
2 -8.06881 -13.8231 0.0440923
3 8.03518 -14.0071 0.0194889
1 6.84727 -5.46373 15.0686
2 -0.136921 9.40854 13.3155
2 -8.13772 -4.557 13.4893
1 0.168335 -9.2696 -13.3372
3 7.95983 4.74419 -13.5023
3 -8.18682 4.71787 -13.096
1 14.7373 2.36645 0.123748
1 14.754 -0.694523 2.15439
2 14.9256 0.557991 -2.14499
3 5.33212 13.8891 -0.0771011
2 6.70018 13.2421 2.14239
2 8.05857 12.5135 -2.16857
1 -9.38231 11.8359 -0.0267913
1 -6.6774 13.424 2.18018
3 -14.8392 -2.27187 -0.251674
2 -15.0824 -0.872386 2.01529
2 -14.9704 1.11597 -1.98684
1 -5.22287 -13.9965 -0.152349
1 -8.13875 -12.4176 2.12508
3 -6.70477 -13.2049 -2.19519
3 9.51629 -11.6331 -0.108176
3 6.61503 -13.4275 -2.19768
2 6.60738 -2.47582 13.2716
1 5.30354 -4.84196 13.0516
2 -1.25322 7.10082 13.2535
3 1.48348 -6.97043 -13.2162
3 -1.37818 -6.87845 -13.1892
2 5.31133 4.74137 -13.5646
1 13.3226 -1.53427 4.33816
2 13.5963 1.52776 -4.2674
3 2.7693 14.014 -0.247803
2 5.29232 12.4058 4.45788
1 8.18617 11.1274 -4.44942
2 -10.798 9.2682 0.0879194
1 -5.33635 12.37 4.36895
1 -7.9905 10.9016 -4.42081
2 -13.8865 -4.70892 -0.358501
1 -13.5434 -1.72562 4.35288
3 -13.4097 1.55727 -4.17579
2 -2.63028 -14.0453 0.0811469
3 -7.87956 -10.8627 4.42127
2 -5.49071 -12.5036 -4.27744
3 10.5884 -9.34923 -0.0331581
3 5.09497 -12.361 -4.38627
3 5.30916 -0.157173 13.1066
3 2.84864 -4.86067 13.0793
1 -2.55324 4.92211 13.3913
2 2.93335 -4.59181 -13.5612
2 -2.66539 -4.64818 -13.324
3 2.68375 4.93717 -13.3052
2 12.1331 6.96862 0.0526332
3 12.0833 -2.42321 6.57401
2 12.0288 2.47346 -6.75877
2 0.020815 13.985 -0.0501337
1 3.85748 11.5422 6.491
2 8.28397 9.15787 -6.63587
2 -12.1584 7.04233 0.0728558
1 -4.1932 11.7112 6.68418
2 -8.02577 9.49883 -6.59532
2 -12.2903 -7.01238 -0.22902
2 -12.2186 -2.3056 6.61195
1 -12.2837 2.21851 -6.46578
2 0.00450385 -14.1375 0.0982056
2 -8.13396 -9.3137 6.4973
1 -3.91205 -11.5852 -6.49645
3 12.1199 -7.00748 -0.0693925
2 7.97566 -9.4256 6.44841
3 4.38376 -11.6495 -6.49802
1 4.15396 2.26782 13.0614
3 0.0185235 -4.73463 12.8437
2 -4.10469 2.21934 13.365
1 3.834 -2.28906 -13.5385
1 -4.00457 -2.30607 -13.2476
2 -0.0100017 4.73603 -13.5121
1 10.5821 9.41958 0.0190768
2 10.8636 -3.25825 8.8133
2 10.7577 3.20904 -8.97222
2 -2.63293 14.1371 -0.0769469
2 2.64028 10.9819 8.70656
3 8.06281 7.76137 -8.85704
2 -13.6267 4.88588 0.128328
3 -2.72268 10.8456 8.80717
1 -8.17437 7.918 -8.85425
2 -10.8325 -9.36338 -0.0933086
2 -10.8523 -3.33298 8.99445
3 -10.8297 3.16178 -8.55652
2 2.77823 -14.0459 -0.122122
1 -8.12698 -8.03912 8.99959
3 -2.58687 -10.806 -8.84479
2 13.5849 -4.66139 -0.0114941
1 8.11016 -7.93352 8.7161
3 2.75314 -10.7307 -8.82061
3 2.75343 4.67327 13.218
1 -2.4746 -4.76416 13.0919
2 -5.32204 -0.0451316 13.3086
1 5.60375 -0.343464 -13.308
2 -5.5794 0.0673772 -13.2726
3 -2.66541 4.69107 -13.3033
2 9.55542 -4.13364 11.1326
3 9.39738 3.99433 -11.0443
2 -5.28114 14.144 0.19648
2 1.24844 10.2213 10.9483
2 8.0582 6.23915 -11.3367
2 -14.9585 2.54096 0.0388758
3 -1.40231 10.087 10.7665
2 -7.9569 6.24413 -11.0089
3 -9.39968 -11.5246 0.0255068
2 -9.51103 -4.06807 11.1169
1 -9.43902 4.10988 -10.9304
1 5.34203 -14.1337 -0.026525
2 -7.80081 -6.42262 11.2203
1 -1.22848 -9.9879 -10.9924
2 15.0969 -2.49762 0.102596
3 8.20246 -6.45246 10.8918
2 1.45592 -10.0308 -11.0323
2 1.37154 7.09505 12.9749
2 -5.32273 -4.73156 13.2548
2 -6.80833 -2.42078 13.2335
1 6.70734 2.37789 -13.2517
1 -6.96963 2.41941 -13.3746
2 -5.63155 4.62005 -13.2247
1 13.349 3.07525 -2.21032
2 4.15075 13.3831 2.06841
2 -9.49737 10.2956 -2.1035
2 -13.6277 -3.02654 2.07572
2 -3.92348 -13.356 -2.26641
2 9.39001 -10.3025 2.24428
3 3.99539 -2.46119 13.1134
2 0.109356 -4.59768 -13.2306
2 12.1596 3.92793 -4.59073
2 2.79807 12.2228 4.10014
2 -9.65091 8.60458 -4.4125
2 -12.2937 -3.92669 4.32455
2 -2.62342 -12.3477 -4.62708
2 9.53949 -8.69109 4.29802
3 1.62462 -2.45956 13.1024
3 -1.27915 -2.48229 -13.1802
1 11.0083 4.95287 -6.7703
2 1.35694 11.5726 6.44194
2 -9.47585 7.19822 -6.72307
1 -10.8727 -4.6648 6.80639
1 -1.11564 -11.6481 -6.74702
2 9.53685 -7.10032 6.52068
3 -1.3417 -2.37821 13.0032
2 -2.62214 -0.257284 -13.2981
1 9.59187 5.57668 -8.88918
3 -0.0218224 10.7458 8.70038
2 -9.42642 5.52439 -8.67262
2 -9.43744 -5.57399 8.92032
2 0.0515462 -10.8003 -8.76918
2 9.4883 -5.66265 8.83993
2 -4.05853 -2.37307 13.2264
1 -4.16432 2.50937 -13.2157
3 13.5027 1.51756 2.20236
1 5.31341 12.4929 -2.20547
1 -8.09462 11.1698 2.27199
1 -13.552 -1.26919 -2.24168
2 -5.1578 -12.4146 2.28879
1 7.6802 -11.0182 -2.12876
1 11.9982 0.969604 4.46069
3 5.43514 10.9001 -4.39593
1 -6.70373 10.1353 4.4668
2 -12.3738 -0.727957 -4.27631
1 -5.36569 -10.9412 4.6317
2 6.59792 -10.252 -4.36709
2 10.6653 0.0492448 6.48978
2 5.41945 9.5068 -6.96465
2 -5.31259 9.58354 6.64987
2 -10.9688 -0.061688 -6.49657
3 -5.50663 -9.39193 6.83796
1 5.51413 -9.3528 -6.55147
2 9.47858 -0.967314 8.89059
1 5.38425 8.0335 -8.86979
3 -4.10764 8.46054 8.73212
3 -9.45517 0.789648 -8.56501
2 -5.51467 -7.89168 9.10817
3 4.06162 -8.51922 -8.65578
2 8.24258 -1.70067 11.2312
2 5.43427 6.31019 -11.5459
2 -2.79816 7.95115 10.8905
2 -8.40837 1.7421 -10.9722
3 -5.41759 -6.1446 11.0875
1 2.74483 -7.79734 -11.1055
2 12.027 5.42554 -2.06362
2 1.54221 13.2222 2.03612
2 -10.9824 7.94068 -2.17644
2 -12.1329 -5.528 1.93232
2 -1.18776 -13.1866 -2.14168
1 10.9432 -7.84973 2.08224
2 2.67073 -0.0335988 13.0231
3 1.26775 -2.40817 -13.1643
1 11.0756 6.17894 -4.41752
2 0.272983 12.7276 4.0853
1 -11.0108 6.2887 -4.33961
1 -10.8373 -6.04848 4.18806
3 -0.123877 -12.2792 -4.32084
2 10.7885 -6.17332 4.34154
2 0.0568114 -0.14113 13.0463
2 -1.38922 11.6041 6.66192
2 -10.8084 4.81483 -6.43848
1 -9.64498 -6.93287 6.56334
2 1.36214 -11.5793 -6.59489
2 10.9215 -4.8806 6.63907
2 -2.58037 0.0455229 13.3327
2 -1.46162 2.23176 -13.3176
2 12.2624 3.82153 2.11885
3 2.81975 12.585 -2.40101
2 -9.34392 8.4579 2.21593
3 -12.1582 -3.91843 -2.24838
3 -2.66871 -12.3792 2.17076
2 9.50518 -8.6433 -2.44533
2 10.616 3.154 4.48428
1 2.793 11.0401 -4.62756
3 -7.94592 7.77839 4.29271
3 -10.8994 -3.30108 -4.60142
2 -2.68948 -10.9196 4.52158
3 8.16848 -7.7867 -4.30499
3 9.35157 2.33306 6.65216
2 2.80851 9.39274 -6.70317
1 -6.74573 7.11554 6.45321
2 -9.36971 -2.40236 -6.62084
3 -2.88361 -9.60211 6.78551
1 6.85479 -6.98087 -6.71936
2 7.91176 1.50942 8.82828
3 2.83152 7.84168 -8.94293
1 -5.43684 6.20041 8.93589
1 -7.97947 -1.57131 -8.68088
1 -2.66461 -7.84921 8.88672
1 5.29448 -6.31335 -8.75043
2 6.61573 0.596727 10.9083
2 2.66688 6.28313 -11.1504
3 -3.86735 5.50363 11.0199
3 -6.98388 -0.739497 -11.0712
2 -2.8215 -6.43482 10.9666
2 3.90416 -5.58369 -11.0192
1 10.6475 7.81945 -2.1425
2 -12.4282 5.59522 -2.22935
2 -10.7829 -7.96535 2.09738
2 1.42067 -13.3583 -2.16866
2 12.267 -5.4554 2.25927
2 1.39071 2.45599 13.2437
2 2.39855 0.0463755 -13.5209
2 9.52875 8.78722 -4.12292
2 -2.49607 12.5046 4.22919
3 -12.1322 3.80934 -4.36213
3 -9.50274 -8.35611 4.28503
2 12.3278 -3.73952 4.37841
3 -1.41004 2.33023 13.5343
3 1.18606 2.21411 -13.3246
2 10.7091 6.23987 2.15496
3 0.265024 12.5892 -2.45264
3 -10.6598 6.42166 2.25869
2 -10.7854 -6.44289 -2.25291
2 -0.0230759 -12.495 2.16991
2 10.791 -6.38983 -2.31733
1 9.48298 5.38495 4.42739
2 -0.0413424 10.9614 -4.48227
3 -9.49743 5.61704 4.42777
2 -9.52494 -5.59691 -4.29034
2 -0.0709573 -10.9995 4.49742
3 9.59869 -5.49783 -4.3838
1 -8.25831 4.73446 6.51373
2 -8.20205 -4.82897 -6.55819
2 -0.110019 -9.44803 6.55483
2 8.34349 -4.73378 -6.51671
2 6.755 3.77997 8.81178
2 0.15742 7.56512 -8.97896
1 -6.76674 3.98548 8.82299
2 -6.81779 -3.94677 -8.67673
2 0.113279 -7.80888 8.6112
2 5.44795 3.10264 11.1198
2 -0.154239 6.13218 -11.3133
2 -5.26088 3.16505 10.8563
2 -5.31141 -3.08951 -10.8018
3 -0.324499 -6.1306 10.9086
2 5.40357 -3.03928 -11.0488
1 -3.60444 13.4119 2.01868
2 -13.7105 3.29556 -2.39881
2 -9.29231 -10.0324 2.1261
3 4.05628 -13.5246 -2.26339
3 13.3965 -3.14584 2.18792
2 -0.0456377 4.6213 13.1738
1 3.87234 2.3756 -13.3986
3 9.3437 8.48303 2.01247
3 -2.54235 12.533 -2.2718
3 -12.2281 3.92604 2.02377
3 -9.48652 -8.71955 -2.31666
1 12.1234 -3.87326 -2.32151
3 8.07712 7.61849 4.40253
1 -2.68249 10.9728 -4.43805
2 -10.8126 3.34331 4.40128
3 -8.0144 -7.8696 -4.4477
2 2.85048 -11.0693 4.2374
1 10.7822 -3.08187 -4.48024
2 6.78049 7.14026 6.6306
2 -2.69736 9.45923 -6.76491
1 -9.53147 2.32781 6.48286
3 -6.75553 -7.00235 -6.56153
3 2.83204 -9.4808 6.56782
1 9.40033 -2.37185 -6.62382
2 5.46014 6.12973 8.72813
3 -2.47953 7.8516 -8.76779
1 -7.99425 1.66505 8.8895
3 -5.39194 -6.26423 -8.7995
2 2.75466 -7.78378 8.98711
3 8.19532 -1.65134 -8.91745
3 4.20183 5.31009 10.8558
2 -2.73705 6.2751 -10.9842
2 -6.57608 0.653249 10.9196
2 2.5064 -6.2801 10.9245
2 6.88057 -0.743698 -10.9374
2 8.21821 11.0852 1.88429
1 -5.51537 12.576 -2.18773
3 -13.449 1.29764 1.9244
2 5.18311 -12.5319 2.16487
3 6.63166 10.203 4.31576
3 -5.40015 11.0221 -4.51441
1 -12.1957 0.454175 4.1935
2 -6.87238 -10.108 -4.16573
3 5.37331 -11.1424 4.29267
1 12.2829 -0.853287 -3.98623
1 5.32218 9.28523 6.54034
2 -5.41935 9.43404 -6.7366
2 -11.0704 -0.163639 6.22451
2 -5.31464 -9.19894 -6.49983
2 5.26434 -9.43478 6.52624
1 10.8434 0.243628 -6.70644
2 3.90948 8.46643 8.79918
2 -5.3213 7.86353 -8.83661
2 -9.57048 -0.883744 8.63714
1 -4.02966 -8.49205 -8.97915
3 5.33559 -7.8488 8.73638
2 9.45632 0.746695 -8.93536
2 2.46991 7.90839 10.8476
2 -5.41212 6.09555 -10.9679
2 -8.12526 -1.50036 10.9501
3 -2.64577 -7.69068 -11.1197
2 5.42639 -6.21784 10.9379
3 18.9891 0.25764 -0.0534358
3 9.20264 16.7268 0.223496
3 -9.33902 16.4558 0.0935687
3 -19.0153 0.0251152 0.204139
1 -9.44316 -16.1668 0.119505
2 8.92406 -17.3647 -0.195978
1 9.70686 -5.61764 15.4926
2 0.610722 10.8966 15.5366
2 -9.38103 -5.42165 15.6586
3 0.14684 -11.0086 -15.4552
3 9.14006 5.41332 -15.4859
3 -9.49607 5.79304 -15.3247
3 17.1911 2.306 -0.0488455
1 17.5356 -0.759855 2.09321
2 17.6376 0.716455 -2.27395
2 6.61043 16.3822 -0.0130826
2 8.02601 15.6069 2.18041
1 9.49602 15.0984 -2.13518
3 -10.8596 14.1085 0.0754331
2 -8.03339 15.4799 2.17278
3 -9.31207 14.8107 -2.17381
1 -17.5165 -2.1364 -0.0838277
3 -17.7041 -0.879627 2.34031
2 -17.6556 0.722839 -1.91304
2 -6.75042 -16.1422 0.177907
3 -9.54396 -14.6499 2.09821
2 -8.07418 -15.4909 -2.30622
1 10.6505 -14.1475 -0.00669086
2 9.23871 -14.4701 2.09735
2 8.14848 -15.5962 -1.83538
2 8.10848 -3.35932 15.6471
1 5.27429 -3.26094 15.3922
1 -1.09208 8.71021 15.6886
3 1.49228 -8.67216 -15.4096
3 -1.10706 -8.62563 -15.4965
2 6.51584 5.31356 -15.8431
2 15.9675 4.69619 0.19627
1 16.0678 -1.68459 4.31205
2 16.3015 1.33909 -4.32034
1 4.12263 16.305 -0.131478
3 6.76924 14.49 4.2801
1 9.46462 13.4461 -4.29404
2 -6.85932 14.7242 4.43899
3 -9.27276 13.3225 -4.46359
2 -16.2532 -1.60765 4.30151
3 -16.3687 1.71731 -4.49655
2 -4.13531 -16.3083 0.178765
2 -9.17937 -13.2872 4.26978
2 -6.82114 -14.6973 -4.28874
3 12.1842 -11.6031 0.126254
1 9.41989 -13.0417 4.41131
1 6.92937 -0.944945 15.4863
2 3.75691 -5.60601 15.4834
1 -2.38749 6.30587 15.7819
2 2.80449 -6.56519 -15.5605
2 -2.3739 -6.43514 -15.5834
1 3.92275 5.31752 -15.5696
3 14.7814 7.14946 0.155602
1 14.8341 -2.57135 6.47308
3 14.6743 2.5087 -6.59613
1 1.2897 16.1841 -0.267894
2 5.33926 13.9764 6.67522
3 9.36215 11.3954 -6.64958
2 -13.5578 9.30403 -0.0151469
1 -5.43873 14.0366 6.55829
1 -9.40161 11.7679 -6.64008
3 -14.9378 -6.9491 0.0509761
2 -14.7274 -2.42863 6.56092
2 -14.8736 2.50561 -6.33252
2 -1.38562 -16.4293 0.115364
1 -9.3888 -11.6072 6.37279
2 -5.16819 -13.9102 -6.65255
2 13.2931 -9.32007 -0.0331485
3 9.3586 -11.6118 6.49207
2 5.46768 -13.9862 -6.43319
1 5.40781 1.41086 15.3933
1 -3.84858 3.96471 15.5923
1 4.04348 -3.90164 -15.6718
2 -4.00855 -4.04298 -15.4926
3 1.24942 5.43417 -15.5802
2 13.3659 9.29873 -0.0283475
1 13.628 -3.37257 8.91283
2 13.5698 3.50728 -8.77972
2 -1.54426 16.4158 0.0015752
3 4.15837 13.0124 8.7091
2 9.55395 9.99396 -8.59782
1 -14.7154 7.17126 -0.261134
3 -4.07663 13.1861 9.11245
2 -9.61478 10.0392 -8.75044
3 -13.58 -9.21044 -0.14913
1 -13.7518 -3.04629 8.83853
1 -13.5633 3.12465 -8.69972
3 1.37099 -16.5011 0.0840705
2 -9.52509 -10.3523 8.6945
2 -3.82212 -13.0876 -8.77722
3 14.6853 -6.96584 -0.147329
1 9.48901 -10.0742 8.64464
2 4.18265 -13.1709 -8.67435
3 3.90646 3.81804 15.4371
1 -0.913491 -5.41623 15.2468
2 -5.44497 1.3436 15.5916
1 5.39821 -1.42463 -15.6761
2 -5.37811 -1.47921 -15.4624
3 -1.57998 5.36315 -15.4106
1 12.1342 11.5507 0.0155803
2 12.1351 -4.21261 10.9614
2 12.0568 3.73122 -11.2135
3 -3.99688 16.592 0.0658839
3 2.71654 12.2959 10.9044
3 9.2097 8.7051 -10.8099
1 -16.2481 4.85067 -0.166822
3 -2.90715 12.1955 10.8284
2 -9.34572 8.84467 -11.2556
3 -12.2519 -11.5947 -0.0301652
3 -12.1504 -3.88656 11.074
2 -12.081 4.02645 -10.6646
3 3.96644 -16.444 0.152535
3 -9.51959 -8.65464 11.323
2 -2.45794 -12.2381 -10.8625
3 16.0745 -4.75412 -0.0419804
3 9.38195 -8.59987 10.9164
2 2.74703 -12.3335 -10.8727
2 2.82017 6.24401 15.1839
2 -4.05722 -5.45887 15.5812
2 -6.68153 -0.902505 15.6515
3 -6.93259 0.710072 -15.3228
3 -4.26337 5.39367 -15.3057
1 10.8125 14.2418 -0.040291
3 10.513 4.51027 -13.4603
1 -6.74793 16.3263 -0.164675
3 1.45278 11.4938 13.1725
3 9.18417 6.77114 -13.6712
3 -17.546 2.57911 0.0972974
2 -1.54689 11.6637 13.0112
1 -9.40739 7.10432 -13.1552
3 -10.8717 -14.065 -0.0570589
3 -10.6969 -4.75169 13.3703
1 -10.7719 4.72825 -13.1178
3 6.52767 -16.5125 0.145484
2 -9.43184 -6.81936 13.5059
3 -1.13593 -11.6765 -13.1864
1 17.6822 -2.34467 -0.171641
2 9.32542 -7.36974 13.1136
2 1.44705 -11.7068 -13.2404
2 1.38387 8.39215 15.3003
1 -6.92045 -5.33597 15.694
2 7.93157 2.96663 -15.6041
3 -8.34861 3.29946 -15.3571
2 15.8266 3.13269 -2.0998
2 5.32018 15.6991 2.35344
3 -10.7609 12.6446 -2.26107
1 -16.2597 -3.12124 2.12944
3 -5.43419 -15.5575 -2.16489
2 10.7294 -12.2751 2.178
1 0.141457 -6.28215 -15.4601
2 14.8436 3.98291 -4.49614
2 3.90843 14.7193 4.44418
1 -10.6647 10.9709 -4.37038
3 -14.9327 -3.68496 4.16366
1 -4.03207 -14.8341 -4.41599
3 10.9236 -10.877 4.34563
3 2.72048 -3.2626 15.2055
1 -1.35985 -3.8853 -15.5445
3 2.65167 13.9238 6.50338
3 -10.8394 9.45841 -6.5465
3 -2.4599 -13.8742 -6.76709
3 10.7421 -9.39444 6.48773
2 -0.106449 -3.07224 15.1021
1 -2.67107 -1.58001 -15.4458
2 12.1684 5.64386 -9.09516
1 1.51619 13.0285 8.68945
1 -10.9977 8.01963 -8.84349
1 -12.3831 -5.46075 8.87797
2 -1.0793 -13.0466 -8.66067
2 10.8472 -7.82544 8.9385
3 -2.69342 -3.28949 15.0549
3 -4.13327 0.614952 -15.2675
3 0.0964645 12.4034 10.8029
2 -10.7732 6.29001 -10.905
2 -10.7622 -6.42334 11.3656
1 0.110122 -12.3866 -10.8671
2 10.9504 -6.47359 11.2089
3 -5.34337 -3.17004 15.341
3 -5.64014 3.04359 -15.2998
3 16.1654 1.67935 2.19293
3 6.95132 14.8756 -2.37992
3 -9.36865 13.1807 2.17523
1 -16.3451 -1.49503 -2.39197
3 -6.8956 -14.5238 2.31434
3 9.35319 -13.2604 -2.21975
2 14.8377 0.724604 4.29253
2 6.71021 13.2417 -4.40135
2 -8.21351 12.3389 4.39686
1 -14.9429 -0.661205 -4.46188
2 -6.75462 -13.3251 4.58961
1 7.81676 -12.5954 -4.35181
2 13.5055 -0.20958 6.51943
2 6.76193 11.7839 -6.56379
2 -6.91313 11.5523 6.77719
3 -13.6697 0.00542233 -6.54549
2 -6.71183 -11.7413 6.60581
2 6.77952 -11.4457 -6.5199
1 12.1522 -0.903321 8.69336
2 6.93195 10.2407 -8.88523
3 -5.52513 10.8028 8.72977
2 -12.255 0.860903 -8.64893