3997
 Atoms. Timestep: 100
2 0.0222547 0.0254725 -0.0351113
3 2.5669 -0.00165446 -0.00828816
2 1.32035 2.20107 -0.0398805
2 -1.28219 2.17913 -0.0754143
1 -2.51657 -0.0507854 -0.0610076
3 -1.27967 -2.27046 -0.0476748
2 1.2687 -2.24477 0.0183455
2 1.33119 -0.639774 2.05116
2 0.00111846 1.54553 2.0194
2 -1.25442 -0.691795 2.12036
2 -0.0387955 -1.39018 -2.0569
1 1.32996 0.758744 -2.13809
3 -1.31796 0.772936 -2.15617
1 5.16203 -0.0550479 -0.128015
1 2.62325 4.4657 -0.0715248
3 -2.50388 4.42616 -0.0639386
2 -5.11391 -0.0860744 0.0243323
2 -2.61714 -4.49816 0.079603
3 2.56057 -4.54366 0.064034
2 2.60903 -1.44214 4.20708
2 0.140178 3.02343 4.1646
2 -2.56263 -1.37029 4.25029
2 -0.00637919 -3.00103 -4.28522
3 2.66699 1.56301 -4.33371
3 -2.61273 1.48707 -4.29389
1 3.88211 2.16509 -0.0424473
2 3.95886 -0.714457 2.01571
3 3.94964 0.791676 -2.1877
1 0.0508977 4.4259 -0.0923519
1 1.29001 3.77243 2.13622
2 2.66465 2.9953 -2.13858
1 -3.89237 2.20264 -0.0572584
2 -1.26616 3.78318 2.02673
1 -2.49309 2.96344 -2.19586
1 -3.88506 -2.32038 -0.0839485
1 -3.88953 -0.763588 2.14692
1 -3.82711 0.683205 -2.18967
3 -0.0546201 -4.45216 0.0316523
2 -2.64076 -2.92866 2.13528
2 -1.25958 -3.67698 -2.08099
3 3.84342 -2.3036 0.0311179
2 2.65498 -2.99047 2.09014
2 1.32822 -3.78949 -2.03199
3 1.40018 0.83007 4.12486
2 0.116678 -1.40408 4.2012
1 -1.16539 0.758271 4.2181
2 1.34422 -0.77477 -4.21197
1 -1.32134 -0.7065 -4.16957
2 0.0551334 1.52508 -4.24417
3 2.62326 1.58715 2.08874
3 -0.000915763 3.01879 -2.20001
1 -2.58233 1.5044 2.08671
3 -2.54109 -1.60727 -2.17216
2 -0.0710458 -2.92025 2.05901
2 2.62503 -1.45121 -2.10243
2 7.88195 -0.00948217 -0.0880634
1 3.92197 6.84799 -0.11094
1 -3.81521 6.70838 -0.0639114
1 -7.78061 0.0679302 -0.0515947
1 -3.9542 -6.76087 0.0536251
3 3.86491 -6.83791 -0.0523763
1 3.86054 -2.16701 6.38432
2 0.0619163 4.52728 6.39426
2 -3.96504 -2.29748 6.45537
3 -0.0599296 -4.54058 -6.41922
2 4.04798 2.27367 -6.40422
3 -3.8621 2.27096 -6.43091
3 6.52546 2.23367 -0.0739532
1 6.55245 -0.738142 2.02851
3 6.52644 0.670817 -2.13346
3 1.25767 6.80508 -0.10742
1 2.62693 6.04562 2.04882
3 3.9241 5.25499 -2.1746
1 -5.21109 4.48926 0.0074549
3 -2.55027 5.99952 2.11454
1 -3.84758 5.18963 -2.25869
3 -6.52293 -2.36371 -0.0682377
1 -6.5114 -0.749596 2.05895
1 -6.4761 0.811612 -2.18833
1 -1.29532 -6.80287 0.0845885
3 -4.00622 -5.23036 2.24878
1 -2.69834 -6.00643 -2.05333
2 5.15088 -4.53936 -0.0600833
2 3.92297 -5.39149 2.06405
3 2.61124 -6.06053 -2.06337
2 2.56153 0.0307821 6.34307
3 1.22586 -2.28956 6.37647
2 -1.26812 2.27463 6.36872
3 1.28617 -2.21638 -6.44728
2 -1.31472 -2.29242 -6.40701
3 1.47777 2.25355 -6.45596
1 5.3158 4.46688 0.0299168
2 5.32991 -1.47799 4.27598
3 5.30242 1.57961 -4.26266
2 -1.24939 6.79352 -0.0604374
3 1.25118 5.35653 4.21847
1 3.93009 3.76449 -4.2928
2 -6.50379 2.35614 -0.018145
2 -1.27201 5.28916 4.16605
2 -3.85708 3.7976 -4.33267
3 -5.29676 -4.56627 -0.049026
2 -5.38839 -1.49546 4.27569
1 -5.17175 1.57407 -4.30674
2 1.27332 -6.78548 0.0465574
2 -3.85668 -3.76829 4.31444
1 -1.35809 -5.23515 -4.26017
1 6.52366 -2.29234 -0.113306
2 3.99093 -3.74356 4.31051
1 1.36199 -5.26428 -4.20159
1 1.28461 2.22913 6.30818
1 -1.28493 -2.29664 6.30297
2 -2.70409 0.00822426 6.41471
2 2.64401 0.0151446 -6.43468
2 -2.60515 0.0536846 -6.40482
2 -1.13767 2.28423 -6.44629
1 5.2687 2.935 -2.22974
2 0.0638454 6.06868 2.00262
3 -5.14008 2.94535 -2.07308
2 -5.24451 -3.017 2.05103
1 0.036667 -6.05752 -2.0072
2 5.23379 -3.06074 2.1159
2 0.0018457 0.018565 6.41906
2 0.0161202 -0.0180869 -6.35496
1 5.2523 1.53193 2.03622
3 1.32178 5.3491 -2.22954
2 -3.88169 3.80715 2.03414
1 -5.17815 -1.51075 -2.23418
1 -1.42784 -5.19682 2.17352
1 3.8548 -3.76155 -2.06564
1 3.89031 0.725241 4.16025
2 1.37355 3.7709 -4.23147
2 -2.6768 2.97348 4.18208
3 -3.89887 -0.781612 -4.26859
2 -1.293 -3.77416 4.31732
1 2.53391 -2.98595 -4.22149
3 3.90301 3.76849 2.09551
2 -1.22499 5.30923 -2.21357
3 -5.29617 1.60865 2.10357
2 -4.06307 -3.79908 -2.19972
1 1.31615 -5.2088 2.08865
2 5.25565 -1.50155 -2.14402
3 2.64429 3.0558 4.20406
1 -1.30148 3.76064 -4.34431
1 -3.97092 0.800019 4.2447
2 -2.61237 -3.08768 -4.26684
2 1.34268 -3.6553 4.14268
1 3.90072 -0.644031 -4.20768
2 10.6251 0.00103518 -0.107433
3 5.33344 9.11873 -0.0122604
1 -5.21478 9.14052 0.0131918
2 -10.6394 -0.0208133 -0.0247577
1 -5.2772 -9.07836 0.0290321
1 5.15836 -9.13703 0.0199869
1 5.15833 -3.04165 8.6618
2 0.0183466 6.13068 8.6422
2 -5.29341 -3.05132 8.55575
2 0.0444478 -6.10479 -8.58039
3 5.38386 3.05757 -8.53872
1 -5.22534 3.04736 -8.59982
3 9.16971 2.23978 -0.117876
2 9.25792 -0.815446 2.10603
2 9.13835 0.735228 -2.26838
1 2.5534 9.0731 -0.0608889
1 4.03775 8.33961 2.10455
2 5.25903 7.51567 -2.16854
2 -6.62026 6.77717 -0.0325584
1 -3.89559 8.33553 2.18263
1 -5.26859 7.51621 -2.12103
1 -9.19967 -2.25226 0.0126461
2 -9.15872 -0.734826 2.0558
1 -9.263 0.771301 -2.16251
3 -2.58025 -9.17109 0.0979615
2 -5.28256 -7.52561 2.1572
3 -3.86667 -8.38269 -2.12312
1 6.52117 -6.82794 0.00343553
3 5.23947 -7.62648 2.0881
2 3.86768 -8.39986 -2.1437
2 3.96255 -0.790971 8.61745
3 2.59712 -3.09211 8.5163
2 -1.33934 3.84072 8.64126
2 1.31592 -3.76396 -8.56318
1 -1.31377 -3.80099 -8.53409
2 2.73448 3.1362 -8.58814
2 8.03713 4.4667 -0.0580793
1 7.91782 -1.58498 4.27069
3 7.8457 1.47278 -4.40302
2 0.0188498 9.11319 -0.0380972
1 2.57712 7.56844 4.29147
2 5.35175 5.99974 -4.2452
3 -7.88497 4.62085 0.0176986
3 -2.61816 7.51242 4.21422
3 -5.21009 6.00493 -4.35926
3 -7.90774 -4.54623 -0.0406423
3 -7.94363 -1.47483 4.27027
3 -7.89331 1.47485 -4.35458
3 0.0475282 -9.12842 0.0541746
2 -5.1985 -6.05111 4.32902
1 -2.64788 -7.59118 -4.25044
2 7.98149 -4.64034 0.00356961
2 5.32108 -6.07389 4.30267
2 2.57119 -7.52562 -4.27698
2 2.67676 1.56985 8.64051
3 -0.0592064 -3.09508 8.64114
1 -2.57894 1.55922 8.51277
2 2.57978 -1.4479 -8.59996
2 -2.62611 -1.50301 -8.59015
3 0.127889 3.12383 -8.60447
2 6.64907 6.84639 -0.0506692
1 6.51378 -2.26904 6.44158
3 6.64787 2.26628 -6.48512
2 -2.66032 9.14321 0.0381507
1 1.32162 6.88903 6.43073
2 5.41272 4.6457 -6.50894
2 -9.13742 2.27752 -0.032372
2 -1.34381 6.89098 6.39555
2 -5.09895 4.51323 -6.42715
2 -6.62352 -6.81558 -0.0410929
3 -6.60621 -2.23965 6.45026
1 -6.50368 2.26396 -6.41598
3 2.5767 -9.24759 0.0773082
3 -5.29855 -4.54073 6.43884
3 -1.38569 -6.79721 -6.49183
1 9.25493 -2.27029 -0.072513
3 5.26467 -4.57199 6.49051
1 1.27532 -6.7678 -6.47216
3 1.30582 3.87843 8.60692
2 -2.63736 -3.0561 8.64195
3 -4.01717 -0.781708 8.58018
1 4.01567 0.84407 -8.66333
2 -3.96197 0.82249 -8.57242
1 -2.56621 3.09966 -8.4576
3 7.919 3.01213 -2.14567
2 1.38149 8.27969 2.14292
3 -6.53677 5.29661 -2.27539
2 -7.94503 -3.0218 2.11099
3 -1.28697 -8.34209 -2.07912
1 6.44967 -5.37288 2.1908
1 1.33369 -0.813785 8.48822
3 -0.043741 -1.45528 -8.45693
2 6.60848 3.7081 -4.3497
2 0.0109093 7.60844 4.29052
3 -6.51467 3.83611 -4.29739
2 -6.62499 -3.7216 4.30467
2 -0.112858 -7.52792 -4.33347
3 6.56266 -3.83876 4.2985
1 -1.35002 -0.746754 8.53586
2 -1.2379 0.850279 -8.56126
3 7.89639 1.55427 2.03021
3 2.61468 7.60241 -2.22491
3 -5.2943 6.14429 2.1361
1 -7.8578 -1.529 -2.1821
2 -2.70327 -7.49905 2.16111
1 5.13672 -6.00699 -2.20599
3 6.50361 0.793579 4.23315
2 2.65209 6.07971 -4.28771
2 -3.92613 5.28635 4.18512
3 -6.52687 -0.786552 -4.30445
3 -2.67307 -6.04547 4.28859
2 3.99831 -5.29031 -4.26513
3 5.17622 -0.0404152 6.50823
1 2.67868 4.53461 -6.49637
2 -2.61105 4.53051 6.41099
3 -5.18003 0.0244136 -6.4415
2 -2.67061 -4.56232 6.51563
2 2.61859 -4.50639 -6.41047
1 6.64105 5.25413 -2.15311
2 -1.30763 8.29211 2.17355
1 -7.79855 3.07097 -2.11818
2 -6.58285 -5.24809 2.06614
2 1.25448 -8.35965 -2.07835
1 7.83883 -3.114 2.08388
1 0.0734256 1.51977 8.58376
1 1.26593 0.875508 -8.51095
2 6.61816 3.78568 2.10102
3 0.0527306 7.65614 -2.12612
2 -6.51823 3.86938 2.08125
3 -6.62376 -3.79166 -2.13178
1 0.0153873 -7.60759 2.13577
3 6.60863 -3.80254 -2.19189
2 5.21211 3.00878 4.13522
1 0.0925378 6.04838 -4.2573
3 -5.27228 3.03154 4.12207
3 -5.26689 -3.07223 -4.27287
2 -0.0842908 -5.93415 4.27191
1 5.34421 -2.96529 -4.20313
1 3.97789 2.26983 6.34097
2 0.129877 4.47701 -6.4624
3 -3.92989 2.31807 6.3962
2 -3.93457 -2.25675 -6.32497
2 -0.126627 -4.45499 6.58404
1 3.9055 -2.24659 -6.47162
2 5.20502 6.05819 2.07871
1 -2.49904 7.56795 -2.15615
2 -7.88267 1.46434 2.1545
1 -5.3164 -6.08171 -2.22766
2 2.66599 -7.65441 2.06418
2 7.92812 -1.52659 -2.25617
3 3.98559 5.31653 4.19636
3 -2.54213 6.05123 -4.33738
3 -6.67383 0.745197 4.29698
3 -4.00426 -5.30351 -4.3557
2 2.65082 -6.03786 4.26981
2 6.51749 -0.742007 -4.28488
1 2.56224 4.53283 6.24947
3 -2.48751 4.61205 -6.44636
3 -5.27675 -0.0156781 6.47277
2 -2.68561 -4.63782 -6.44142
1 2.58681 -4.50485 6.36618
1 5.239 0.0742908 -6.39405
1 13.254 -0.0536085 -0.166756
1 6.64008 11.4772 0.0356606
2 -6.48967 11.3816 0.0560408
2 -13.2242 -0.0784409 0.123789
2 -6.46755 -11.4347 -0.00726943
2 6.68853 -11.4716 0.0728625
1 6.59047 -3.84999 10.8359
2 -0.0321331 7.71601 10.9312
2 -6.54177 -3.91631 10.8088
3 0.0373369 -7.67253 -10.8428
3 6.62855 3.85715 -10.793
3 -6.63528 3.80339 -10.8163
2 11.8083 2.32426 -0.11842
1 11.8601 -0.83229 2.13366
2 11.7887 0.697748 -2.29333
2 3.88352 11.3575 0.0580738
2 5.33812 10.691 2.12401
1 6.61076 9.81004 -2.14314
1 -8.00576 9.0643 0.0215081
3 -5.31963 10.6235 2.22165
2 -6.57136 9.95705 -2.11769
3 -11.8686 -2.3108 -0.0690333
1 -11.8792 -0.70191 2.20552
3 -11.9315 0.756291 -2.15752
2 -3.82187 -11.4649 -0.00135882
1 -6.65029 -9.84079 2.1897
1 -5.26904 -10.6458 -2.15548
2 7.8561 -9.11247 -0.0482005
2 6.60273 -9.82626 2.12825
2 5.3149 -10.7263 -2.09917
3 5.238 -1.49486 10.8574
2 4.0237 -3.80074 10.7622
2 -1.30889 5.35404 10.8332
2 1.31345 -5.40513 -10.8754
2 -1.33475 -5.38704 -10.7507
1 4.10395 3.83054 -10.6572
3 10.5824 4.62344 0.00444341
2 10.5403 -1.61204 4.28704
3 10.5285 1.4971 -4.32196
3 1.34349 11.4663 -0.0312608
2 3.98432 9.90522 4.36343
2 6.51658 8.4266 -4.25643
3 -9.28706 6.87734 0.0121412
1 -3.94728 9.86228 4.35009
1 -6.49278 8.40003 -4.28457
3 -10.5918 -4.58512 -0.0221203
2 -10.5752 -1.52662 4.38815
2 -10.4862 1.46597 -4.34579
2 -1.28521 -11.4374 -0.0588265
2 -6.62805 -8.26204 4.38309
2 -3.9252 -9.96375 -4.25991
2 9.35466 -6.95129 0.0360144
3 6.68373 -8.26849 4.33017
3 4.05938 -9.93632 -4.22928
2 3.8921 0.810639 10.7941
2 1.20662 -3.74458 10.7509
2 -2.60808 2.99154 10.8405
2 2.64465 -3.01104 -10.865
2 -2.69277 -3.07074 -10.8255
2 1.3105 3.76593 -10.7736
3 9.28899 6.87322 -0.00783153
2 9.17351 -2.33718 6.4943
2 9.17906 2.22407 -6.48867
1 -1.27819 11.3037 -0.056369
3 2.62411 9.08026 6.51538
2 6.78692 6.93263 -6.49303
1 -10.5503 4.50466 -0.0012745
2 -2.69442 9.12001 6.44946
1 -6.43019 6.85214 -6.51627
2 -9.28999 -6.72908 -0.00837105
3 -9.14505 -2.2179 6.31255
2 -9.14611 2.33503 -6.53209
3 1.2867 -11.473 -0.0129576
3 -6.61654 -6.82903 6.44825
2 -2.63286 -9.14101 -6.43142
2 10.6402 -4.5899 -0.019083
2 6.59995 -6.82894 6.5009
1 2.67843 -9.10721 -6.49281
3 2.58842 3.04888 10.7433
3 -1.35707 -3.76118 10.7457
1 -3.92381 0.727704 10.7837
3 3.98861 -0.747047 -10.8317
2 -4.04656 -0.720301 -10.8688
2 -1.26072 3.83006 -10.697
2 8.03043 9.17242 0.0385705
2 7.90504 -3.0816 8.56491
3 7.97751 3.08647 -8.76098
3 -3.97787 11.5151 0.146417
2 1.27601 8.50218 8.62133
3 6.74479 5.48889 -8.68827
2 -11.9279 2.2907 0.0892405
1 -1.3283 8.41307 8.69199
1 -6.54663 5.39733 -8.69731
2 -8.00643 -9.10382 0.0609612
1 -7.96156 -3.01619 8.584
3 -7.95157 3.02103 -8.64323
2 3.98279 -11.4058 -0.00641543
3 -6.47303 -5.3471 8.57172
2 -1.34228 -8.37403 -8.65462
3 11.9914 -2.40268 -0.106693
1 6.47855 -5.34309 8.57415
2 1.28893 -8.40067 -8.61829
2 1.31305 5.3423 10.7508
1 -3.97852 -3.82492 10.7159
3 -5.32896 -1.50698 10.8627
3 5.32431 1.51735 -10.8466
3 -5.34113 1.48403 -10.8265
2 -4.00916 3.74366 -10.7505
3 10.5798 3.06327 -2.16633
3 2.64757 10.6938 2.24498
2 -7.93904 7.60207 -2.14953
2 -10.6004 -2.96955 2.13261
1 -2.61011 -10.5214 -2.08488
2 7.89813 -7.62989 2.15538
2 2.59513 -1.51672 10.6142
1 -0.00598089 -3.00239 -10.6653
2 9.17103 3.74098 -4.24606
2 1.32256 9.9086 4.35776
2 -7.83879 6.13087 -4.35895
3 -9.19874 -3.74704 4.31209
2 -1.32332 -9.8445 -4.27715
3 7.92459 -6.11791 4.37443
2 -0.0745843 -1.47785 10.6873
2 -1.34549 -0.78102 -10.7189
2 7.94015 4.55275 -6.61216
3 -0.0715766 9.18232 6.4928
1 -7.77302 4.58451 -6.54909
2 -7.92259 -4.54953 6.50357
1 -0.0324987 -9.09744 -6.34533
3 7.86883 -4.57885 6.42459
2 -2.6784 -1.47791 10.7656
1 -2.67045 1.53428 -10.698
1 10.4717 1.46524 1.98928
2 3.82245 9.86926 -2.17239
2 -6.62579 8.38765 2.23529
3 -10.5514 -1.55615 -2.10993
2 -3.91258 -9.97504 2.14083
1 6.54956 -8.40714 -2.17944
1 9.15611 0.762615 4.17499
2 3.99761 8.36321 -4.27957
1 -5.28477 7.58216 4.2849
2 -9.11374 -0.836083 -4.2336
2 -3.9894 -8.28561 4.32811
2 5.38922 -7.57007 -4.33458
1 7.86672 -0.0318656 6.40463
1 4.03276 6.88033 -6.37362
3 -3.9125 6.82111 6.31843
1 -7.83432 0.00217075 -6.41893
2 -3.92644 -6.83483 6.52495
2 3.92652 -6.89923 -6.42
3 6.53384 -0.803057 8.71141
2 4.06088 5.3964 -8.63344
1 -2.59521 6.05265 8.54893
1 -6.6372 0.672727 -8.69811
3 -3.94655 -5.29448 8.54664
2 2.64657 -6.13547 -8.64015
3 9.30736 5.31116 -2.16817
1 -0.00158433 10.5048 2.2231
2 -9.12356 5.34954 -2.10215
3 -9.21105 -5.22093 2.17557
2 0.0560275 -10.6007 -2.14275
1 9.12075 -5.4157 2.13737
3 1.40995 0.754792 10.7427
1 1.25775 -0.665987 -10.695
2 7.95743 6.01641 -4.30584
3 -1.32121 9.85312 4.38355
1 -9.17317 3.76736 -4.32916
2 -7.92496 -6.01479 4.26039
2 1.46314 -9.8908 -4.29408
3 9.21595 -3.85879 4.38051
3 -1.27933 0.805015 10.7618
3 -0.0386576 1.58584 -10.709
1 9.17052 3.77689 2.09581
3 1.24003 9.87454 -2.33981
2 -7.995 6.12595 2.13489
3 -9.1962 -3.79314 -2.09843
2 -1.27098 -9.81547 2.11627
1 7.89853 -6.13274 -2.2876
1 7.77003 3.02319 4.23942
3 1.42662 8.3534 -4.36444
2 -6.58976 5.38644 4.22447
3 -7.8995 -3.10388 -4.32236
2 -1.39767 -8.31358 4.30548
3 6.59347 -5.30525 -4.36766
2 6.60144 2.20338 6.39373
1 1.33436 6.91121 -6.40031
1 -5.24086 4.5947 6.35731
2 -6.53539 -2.31957 -6.43858
1 -1.40556 -6.8212 6.46399
2 5.29228 -4.56403 -6.42728
2 5.33012 1.51711 8.57221
3 1.40815 5.34654 -8.63069
3 -3.97798 3.79775 8.59047
1 -5.21156 -1.54228 -8.55799
3 -1.37697 -5.33775 8.66409
2 4.0204 -3.74651 -8.69258
2 8.03987 7.5763 -2.20248
2 -2.72751 10.618 2.22788
2 -10.5442 3.00618 -2.13092
1 -8.03416 -7.54449 2.2244
3 2.69962 -10.7618 -2.07658
1 10.5195 -3.16129 2.19389
3 0.00909923 3.09556 10.7573
1 2.58004 1.56167 -10.8064
1 7.85861 6.09275 2.0309
2 -1.26864 9.92443 -2.25658
2 -9.17633 3.82598 2.18256
2 -7.86461 -6.07467 -2.1938
3 1.35781 -9.95832 2.09651
1 9.23769 -3.85727 -2.17102
2 6.59204 5.36521 4.25837
1 -1.2781 8.3484 -4.32866
2 -7.80178 3.0503 4.26239
3 -6.464 -5.33204 -4.32175
1 1.32667 -8.29159 4.30672
2 7.94595 -3.07668 -4.33873
2 5.16566 4.5198 6.38752
2 -1.27986 6.93388 -6.46907
2 -6.50973 2.30026 6.32929
3 -5.23088 -4.54216 -6.46136
2 1.25024 -6.82825 6.53503
1 6.5814 -2.36865 -6.48175
1 3.88315 3.8152 8.54674
1 -1.23156 5.41101 -8.53545
1 -5.23514 1.53447 8.49037
2 -3.94347 -3.83832 -8.67909
2 1.28663 -5.34423 8.71241
2 5.33934 -1.44299 -8.79566
2 6.67123 8.44691 2.06898
2 -3.96295 10.0526 -2.12641
3 -10.5118 1.56401 2.14757
3 -6.62297 -8.375 -2.13573
2 3.97667 -9.9476 2.1597
3 10.6016 -1.5324 -2.25262
2 5.25401 7.58902 4.28747
2 -3.84746 8.42392 -4.24695
2 -9.2222 0.739992 4.32082
3 -5.22405 -7.68652 -4.26447
3 3.9899 -8.23865 4.2163
3 9.21275 -0.814717 -4.42431
3 4.00142 6.81797 6.32616
2 -3.83066 6.87241 -6.47793
3 -7.79173 0.0546369 6.45102
3 -3.86367 -6.89789 -6.38963
2 3.98574 -6.88312 6.49706
3 7.90564 -0.00175843 -6.43881
2 2.6332 6.10886 8.52274
3 -3.93532 5.41656 -8.61629
1 -6.58731 -0.748955 8.61418
3 -2.63151 -6.12724 -8.62807
2 3.89439 -5.41664 8.66138
2 6.64262 0.87923 -8.67234
2 15.9895 0.00671418 0.0346713
1 8.03993 13.9245 0.0354548
1 -7.94865 13.8527 0.0466705
1 -16.0201 -0.0130228 0.0269339
1 -8.06165 -13.8868 -0.110879
1 8.0484 -13.9314 -0.0264573
1 7.90254 -4.69097 12.965
3 -0.0208734 9.23114 13.0347
1 -8.07981 -4.57781 12.9482
1 -0.00664316 -9.26928 -13.1273
1 7.94443 4.54631 -12.9807
2 -7.84911 4.77879 -12.9467
3 14.5253 2.2303 0.0334222
2 14.4605 -0.874604 2.16075
2 14.7067 0.779288 -2.20809
2 5.30327 13.7835 0.0982425
3 6.69406 12.9218 2.18601
3 7.95217 12.2859 -2.05224
1 -9.33284 11.4442 0.040845
2 -6.555 12.9059 2.29799
2 -7.87377 12.1985 -2.17193
2 -14.5743 -2.25584 0.0428714
3 -14.6178 -0.762319 2.28163
2 -14.6792 0.804569 -2.13528
1 -5.32086 -13.8153 -0.0338427
2 -7.853 -12.2646 2.15044
1 -6.63388 -13.0414 -2.22241
1 9.34548 -11.5241 0.0342433
2 7.9744 -12.3348 2.18194
2 6.79155 -13.2602 -2.13876
2 6.53786 -2.317 13.0855
2 5.27208 -4.62354 13.0915
1 -1.41857 6.83132 13.0834
1 1.36361 -6.92801 -13.0658
1 -1.38608 -6.94759 -12.9437
1 5.20732 4.59859 -12.9897
3 13.3325 4.50442 -0.0515237
3 13.2379 -1.5777 4.28091
1 13.2439 1.469 -4.33288
1 2.7224 13.769 -0.0672989
1 5.2276 12.172 4.27008
1 7.87996 10.7323 -4.28783
2 -10.6418 9.17066 0.0530956
1 -5.22918 12.1701 4.42972
2 -7.91213 10.7175 -4.40229
2 -13.1825 -4.6081 -0.0316319
2 -13.1816 -1.41957 4.28428
2 -13.2451 1.47159 -4.28932
3 -2.51146 -13.7594 -0.0278686
2 -7.97817 -10.6055 4.29867
1 -5.21819 -12.3158 -4.32785
3 10.5609 -9.26031 0.0284895
2 7.88299 -10.679 4.32617
2 5.33059 -12.3449 -4.34174
3 5.3243 -0.0732773 12.9763
1 2.56301 -4.65397 12.9555
3 -2.72421 4.4846 12.9827
1 2.72439 -4.53889 -13.0017
3 -2.66718 -4.55937 -12.9699
2 2.61052 4.57619 -12.9897
1 12.0139 6.83985 -0.0570703
1 11.8132 -2.29369 6.49633
2 11.8746 2.30732 -6.48302
3 0.0679971 13.584 -0.0460227
3 3.84488 11.4757 6.47978
2 7.96011 9.25069 -6.59966
2 -11.9526 6.94557 -0.0335572
2 -3.95211 11.5115 6.59575
1 -7.83923 9.19404 -6.58792
3 -11.9844 -6.90422 0.105889
1 -11.8026 -2.2555 6.48065
2 -11.8757 2.30833 -6.50987
2 0.0238521 -13.9074 0.0220845
3 -7.98511 -9.16334 6.45151
2 -3.91743 -11.5232 -6.58259
2 11.8835 -6.99594 -0.0118982
2 7.8189 -9.17427 6.50601
3 4.02673 -11.3832 -6.42578
1 3.99756 2.28774 12.8272
3 -0.0223828 -4.58393 13.0512
1 -4.02144 2.23995 12.9769
1 4.03683 -2.28106 -13.0884
2 -4.04014 -2.3221 -13.1138
2 -0.00345074 4.57179 -12.9353
1 10.6331 9.2368 -0.0404004
3 10.5345 -3.08898 8.61818
2 10.5094 3.10556 -8.62891
2 -2.60113 13.6887 0.103009
3 2.55719 10.6623 8.58485
2 8.15603 7.69241 -8.65897
1 -13.1868 4.64015 -0.00819652
3 -2.73995 10.6595 8.71777
2 -8.01838 7.74912 -8.68735
2 -10.6504 -9.16405 -0.0110335
3 -10.5811 -3.0062 8.74104
3 -10.5413 3.07283 -8.57588
1 2.66778 -13.7362 -0.00798662
1 -7.86177 -7.53139 8.6561
2 -2.7273 -10.7069 -8.72997
2 13.2551 -4.61387 -0.0351611
1 7.87932 -7.69569 8.66617
3 2.62609 -10.7292 -8.71495
2 2.57297 4.65652 12.9544
1 -2.66551 -4.63254 12.9158
2 -5.18894 -0.032477 13.0331
2 5.37039 -0.0985181 -13.07
3 -5.30504 0.0691676 -13.0112
2 -2.7095 4.54249 -13.0155
2 9.37834 11.5682 0.115753
2 9.25384 -3.82286 10.8735
2 9.2142 3.83553 -10.8397
2 -5.31587 13.7629 0.0479632
3 1.2665 9.95877 10.8434
3 8.02008 6.19322 -10.8597
2 -14.6215 2.27506 0.0402562
2 -1.31267 10.0827 10.8801
1 -7.94084 6.23182 -10.9085
1 -9.16599 -11.4419 0.0196551
2 -9.32139 -3.94743 10.779
3 -9.19205 3.77314 -10.824
2 5.36006 -13.8801 -0.00321622
3 -7.9351 -6.10473 10.8196
3 -1.34089 -9.97888 -10.8327
2 14.6423 -2.32583 -0.0420561
3 7.99958 -6.17553 10.8252
2 1.33193 -9.99752 -10.9027
2 1.23988 6.93827 13.0018
2 -5.3913 -4.68124 13.0125
2 -6.60945 -2.25245 13.0241
2 6.69081 2.2533 -13.0481
1 -6.56002 2.28139 -12.9686
1 -5.26624 4.62494 -12.9386
2 13.2534 2.99695 -2.14828
1 3.98697 13.0766 2.08294
2 -9.28287 9.92461 -2.15131
2 -13.2211 -3.02789 2.18879
2 -3.90627 -13.0296 -2.23351
2 9.34975 -9.93615 2.1407
1 3.92177 -2.39081 12.925
3 -0.0653678 -4.5451 -12.88
2 11.8162 3.79096 -4.33307
1 2.57764 12.1947 4.33194
2 -9.20894 8.3952 -4.32068
2 -11.8659 -3.76269 4.323
3 -2.61388 -12.1414 -4.35629
2 9.29298 -8.38735 4.26746
2 1.24165 -2.32984 12.9539
2 -1.31295 -2.27768 -12.944
2 10.6131 4.69032 -6.57081
3 1.27263 11.3929 6.4994
1 -9.21034 6.87371 -6.57763
2 -10.6 -4.50813 6.51587
2 -1.25811 -11.4583 -6.48073
2 9.18329 -6.78673 6.4985
1 -1.29667 -2.34015 12.9533
2 -2.65613 0.0741843 -13.0114
3 9.23286 5.42948 -8.73336
2 -0.0745869 10.7186 8.62654
2 -9.31567 5.36128 -8.7793
3 -9.24503 -5.31193 8.61355
1 -0.0760506 -10.6864 -8.67243
1 9.20641 -5.27805 8.66117
2 -3.98152 -2.34825 13.0505
3 -3.98061 2.33253 -13.0234
2 13.2186 1.54067 2.13563
1 5.21697 12.1979 -2.07236
1 -7.92365 10.628 2.21524
2 -13.1031 -1.47575 -2.14247
3 -5.22811 -12.2406 2.09653
1 7.88971 -10.7137 -2.14739
1 11.8927 0.748167 4.29274
1 5.24043 10.6632 -4.25504
3 -6.68249 9.93827 4.36684
2 -11.805 -0.789789 -4.35422
2 -5.31586 -10.6686 4.22942
2 6.63831 -9.912 -4.49902
3 10.4555 -0.0130113 6.35866
1 5.35767 9.19088 -6.53778
1 -5.30428 9.29008 6.4877
3 -10.5368 0.00881182 -6.49675
3 -5.27126 -9.11805 6.42537
3 5.2777 -9.10105 -6.52063
1 9.23195 -0.849305 8.60399
2 5.45229 7.69994 -8.63971
2 -3.97333 8.38518 8.6279
2 -9.18965 0.714453 -8.63863
2 -5.2436 -7.59587 8.62782
1 3.99211 -8.36679 -8.67032
2 7.88259 -1.57904 10.817
3 5.4397 6.14912 -10.7235
2 -2.66543 7.68375 10.8804
3 -7.9025 1.55013 -10.7992
3 -5.2473 -6.14668 10.8613
2 2.55988 -7.72687 -10.8898
2 11.9304 5.32153 -2.07905
2 1.35415 13.024 2.12036
3 -10.4462 7.66836 -2.12981
1 -11.9267 -5.26279 2.15842
2 -1.26797 -12.9597 -2.19213
3 10.6516 -7.72086 2.15784
2 2.61517 -0.00950127 12.9462
1 1.31166 -2.24612 -12.9614
2 10.6416 6.10044 -4.34151
2 -0.0526164 12.1753 4.31245
2 -10.5286 6.07913 -4.25844
1 -10.5191 -6.0731 4.39254
2 0.0220803 -12.1638 -4.31328
2 10.5522 -6.08511 4.1878
3 0.0115745 -0.0617173 12.8975
1 -0.082041 0.0507723 -12.923
3 9.30383 6.91049 -6.46643
3 -1.38577 11.3972 6.52515
2 -10.5868 4.6301 -6.55151
2 -9.23057 -6.84317 6.50778
2 1.45952 -11.4407 -6.50324
3 10.5511 -4.59796 6.36803
3 -2.62626 -0.089158 12.9863
1 -1.3095 2.34137 -12.9691
2 11.8907 3.78665 2.11417
2 2.55933 12.2191 -2.17173
3 -9.33741 8.46141 2.22388
3 -11.7861 -3.72713 -2.15131
2 -2.52922 -12.2705 2.17075
1 9.33715 -8.44706 -2.08019
1 10.6265 3.06501 4.28665
3 2.58448 10.6935 -4.33147
2 -8.03358 7.74256 4.30666
2 -10.4798 -3.12878 -4.21463
2 -2.67971 -10.7123 4.28223
3 7.96287 -7.82834 -4.36344
3 9.25989 2.23247 6.43284
2 2.7029 9.21205 -6.48328
2 -6.57622 6.97467 6.45481
2 -9.1805 -2.27795 -6.41815
3 -2.74945 -9.18287 6.39699
1 6.61026 -6.95334 -6.52395
1 7.90333 1.47083 8.59296
1 2.66534 7.66661 -8.61609
1 -5.24504 6.12793 8.62162
3 -7.88823 -1.55819 -8.67051
3 -2.62486 -7.6139 8.65134
2 5.34669 -6.15829 -8.71457
2 6.55839 0.70107 10.8212
2 2.70317 6.10867 -10.8384
2 -3.9941 5.34143 10.7742
2 -6.70849 -0.714606 -10.8311
2 -2.61181 -6.13517 10.7031
2 4.02429 -5.3323 -10.9126
2 10.6146 7.69242 -2.20046
1 -1.32227 12.9519 2.15821
1 -11.846 5.38877 -2.26257
2 -10.6086 -7.62496 2.13076
2 1.3951 -12.999 -2.10731
3 11.8644 -5.44941 2.09616
2 1.31056 2.30483 12.894
2 2.62782 -0.122681 -13.0019
1 9.21878 8.39305 -4.2758
2 -2.65066 12.1911 4.3804
2 -11.9253 3.75046 -4.31843
2 -9.35607 -8.41226 4.39771
2 2.79025 -12.1968 -4.31145
2 11.903 -3.89567 4.35888
1 -1.32845 2.28406 13.0102
2 1.2877 2.17841 -12.9881
2 10.6416 6.14163 2.03905
3 0.0296131 12.2469 -2.19353
1 -10.5768 6.20767 2.17438
1 -10.5629 -6.10686 -2.15437
2 0.0368834 -12.2423 2.10902
3 10.6293 -6.09663 -2.17039
2 9.33892 5.3091 4.28473
3 0.15058 10.6821 -4.36416
3 -9.23334 5.37144 4.31159
2 -9.20919 -5.35879 -4.24505
2 0.0225953 -10.5991 4.30631
3 9.26865 -5.34102 -4.35951
2 8.05985 4.5111 6.45549
3 0.0969598 9.17232 -6.48278
2 -7.99838 4.60956 6.37131
2 -7.88474 -4.54502 -6.39424
2 -0.0841148 -9.11729 6.5345
3 7.97773 -4.64882 -6.42394
1 6.51594 3.8173 8.53409
2 0.0867835 7.74488 -8.57762
2 -6.59643 3.91966 8.6666
2 -6.54615 -3.7617 -8.63008
2 -0.0774048 -7.60365 8.71131
2 6.76867 -3.8216 -8.6658
3 5.22816 3.08386 10.712
2 0.0432871 6.14389 -10.7809
1 -5.24934 3.06596 10.6904
2 -5.3151 -3.05636 -10.9173
1 0.0530378 -6.16861 10.926
2 5.35175 -3.04394 -10.9231
2 9.28222 10.0006 -2.1413
3 -3.99826 12.9554 2.22884
2 -13.28 2.98902 -2.19437
3 -9.36483 -9.85682 2.26761
2 4.01663 -13.1307 -2.16155
2 13.1442 -3.15306 2.16251
2 -0.121542 4.48918 13.0017
1 3.92456 2.31512 -13.0125
3 9.26186 8.43092 2.09434
2 -2.6002 12.2111 -2.11008
3 -11.8173 3.86222 2.16801
3 -9.20039 -8.37498 -2.11843
2 2.64424 -12.2201 2.19743
1 11.9601 -3.87906 -2.22739
1 7.87543 7.66685 4.30855
3 -2.6367 10.7047 -4.32306
1 -10.4457 3.06251 4.33466
1 -7.88172 -7.61813 -4.296
2 2.6986 -10.6121 4.33017
2 10.6153 -3.04786 -4.32591
1 6.64129 6.84623 6.48442
2 -2.49239 9.24015 -6.47866
2 -9.18318 2.2973 6.43999
2 -6.47261 -6.83757 -6.41816
1 2.65881 -9.13955 6.45904
1 9.25507 -2.29834 -6.49944
3 5.2624 6.12371 8.49432
2 -2.61724 7.70226 -8.61728
2 -7.90748 1.48083 8.62728
2 -5.20697 -6.12243 -8.5821
2 2.55683 -7.69366 8.72748
1 7.93624 -1.48298 -8.72928
1 3.87138 5.36341 10.7758
2 -2.70474 6.16703 -10.7784
2 -6.54827 0.77672 10.8033
2 -3.90977 -5.4326 -10.7812
2 2.64514 -6.23523 10.9031
3 6.64221 -0.754686 -10.9561
3 8.00082 10.7324 2.14768
3 -5.37218 12.1901 -2.14914
2 -13.198 1.5512 2.20266
2 -7.91667 -10.662 -2.15773
3 5.31822 -12.2427 2.13845
2 13.2384 -1.62635 -2.28456
2 6.58509 9.97459 4.32564
2 -5.19618 10.7448 -4.3902
3 -11.9188 0.821042 4.35789
3 -6.52223 -9.94501 -4.33485
1 5.33908 -10.6448 4.30803
2 11.9005 -0.828141 -4.41341
1 5.15925 9.14497 6.44301
1 -5.18304 9.20336 -6.49385
3 -10.479 0.0811557 6.40193
2 -5.24365 -9.11257 -6.44561
1 5.28109 -9.09787 6.51317
2 10.4876 -0.0123508 -6.47172
2 3.99492 8.3258 8.59687
2 -5.23163 7.74092 -8.67098
3 -9.2788 -0.788157 8.56855
2 -3.99704 -8.40435 -8.5683
3 5.13486 -7.70459 8.78316
1 9.20083 0.870191 -8.63788
2 2.63652 7.76752 10.768
2 -5.3356 6.20966 -10.7947
2 -7.94614 -1.60378 10.7469
3 -2.61393 -7.70952 -10.7269
2 5.35162 -6.2028 10.8701
2 7.92891 1.58027 -10.8731
2 18.6419 -0.0548027 -0.11352
3 9.21856 16.2235 0.0246374
3 -9.32084 16.2404 0.0902736
2 -18.7718 0.083899 -0.0355702
3 -9.42944 -16.0804 0.112504
1 9.44296 -16.2424 -0.0514789
1 9.36264 -5.41707 15.2911
1 0.0174691 10.7618 15.1179
3 -9.41183 -5.28317 15.1968
2 -0.0217591 -10.7466 -15.2028
1 9.32947 5.39667 -15.1821
1 -9.2989 5.31391 -15.2403
1 17.2862 2.32715 -0.102806
2 17.3026 -0.805628 2.24135
3 17.328 0.786843 -2.15293
2 6.63885 16.2112 0.0421522
2 8.03402 15.3628 2.23709
2 9.31579 14.6519 -2.04824
1 -10.6294 13.7757 -0.0611997
1 -7.93936 15.4032 2.12848
2 -9.32321 14.5233 -2.12634
2 -17.3283 -2.27138 -0.00757059
3 -17.2882 -0.676689 2.18998
3 -17.3651 0.838755 -2.13367
3 -6.70568 -16.1266 -0.0745281
3 -9.23825 -14.4477 2.19785
2 -7.91571 -15.3245 -2.24403
3 10.7409 -13.8797 -0.0523782
1 9.38845 -14.6986 2.1849
1 8.00887 -15.5633 -2.23625
1 7.94855 -3.0401 15.2536
2 6.74493 -5.34058 15.3564
1 -1.39401 8.42613 15.2605
2 1.29772 -8.41471 -15.2646
3 -1.41834 -8.49433 -15.2278
1 6.60552 5.29291 -15.242
3 16.0388 4.638 -0.0484972
2 15.8653 -1.66104 4.40935
3 15.962 1.56853 -4.39582
1 3.93342 16.2281 -0.000309277
2 6.60641 14.5151 4.30553
1 9.30043 13.072 -4.29911
2 -12.1046 11.4552 -0.0157403
1 -6.65226 14.5282 4.33456
2 -9.32364 12.9443 -4.33841
2 -16.0089 -4.55158 0.0764006
1 -15.9832 -1.43351 4.37302
1 -15.9232 1.57524 -4.30888
1 -4.02246 -16.1544 -0.00794857
2 -9.25772 -12.9207 4.36038
3 -6.51226 -14.6091 -4.35742
2 11.9429 -11.6117 0.165154
2 9.25672 -13.2134 4.26022
3 6.6617 -14.6623 -4.32438
3 6.59511 -0.719747 15.2402
1 3.99494 -5.38787 15.2347
3 -2.7028 6.00952 15.1403
1 2.69184 -6.11401 -15.2898
2 -2.69852 -6.00969 -15.1369
1 3.95206 5.26674 -15.2512
2 14.6361 6.81863 -0.0830213
1 14.63 -2.24994 6.45886
1 14.6176 2.364 -6.4483
2 1.27532 16.0139 -0.00698784
1 5.25732 13.7403 6.44532
2 9.32924 11.6664 -6.52218
3 -13.2817 9.21215 -0.0622274
2 -5.30094 13.8017 6.55575
2 -9.21284 11.4634 -6.57467
2 -14.6657 -6.85324 -0.00650811
2 -14.6905 -2.15772 6.42316
1 -14.5607 2.43596 -6.37952
3 -1.27598 -16.11 -0.0181626
2 -9.33842 -11.3455 6.56403
3 -5.23958 -13.832 -6.42832
2 13.1924 -9.2342 0.00278037
2 9.26026 -11.4852 6.4708
1 5.31835 -13.7906 -6.50479
2 5.20187 1.43999 15.0957
1 1.18296 -5.3597 15.2627
2 -3.97356 3.67855 15.1948
3 4.07543 -3.83552 -15.279
3 -3.99588 -3.84785 -15.2319
1 1.28233 5.45331 -15.1608
3 13.3498 9.13295 0.000103028
1 13.2603 -3.07014 8.60734
3 13.2314 3.16705 -8.66259
3 -1.33216 16.0032 0.0531759
1 3.86621 13.065 8.65443
2 9.34702 9.97996 -8.82672
2 -14.6311 6.85933 -0.0685883
3 -3.9549 13.0424 8.6846
3 -9.30681 9.98286 -8.73525
2 -13.2613 -9.14615 -0.0112052
2 -13.1927 -2.95045 8.6157
2 -13.2256 3.19005 -8.63804
3 1.42746 -16.1202 0.0132427
2 -9.30679 -9.89324 8.63448
3 -3.89601 -13.1893 -8.62142
1 14.56 -6.89381 -0.123969
3 9.36467 -10.1307 8.6299
3 4.00718 -13.013 -8.63309
2 3.92524 3.76139 15.0925
3 -1.41374 -5.37983 15.27
1 -5.34596 1.51489 15.187
3 5.32677 -1.58047 -15.2676
3 -5.31963 -1.56425 -15.2018
1 -1.42269 5.42733 -15.3335
3 12.0268 11.532 0.0569692
1 11.8706 -3.86667 10.8749
1 11.9138 3.92878 -10.81
1 -4.03154 16.0316 -0.0712144
3 2.56473 12.2438 10.8001
3 9.40864 8.4401 -10.8117
1 -15.972 4.54216 -0.0273668
2 -2.66936 12.3131 10.8051
3 -9.37335 8.4068 -10.8588
2 -11.9732 -11.4849 0.00327991
2 -11.9893 -3.84404 10.8579
2 -11.8324 3.82367 -10.7366
2 4.08134 -16.3106 -0.0950831
2 -9.27399 -8.23466 10.811
1 -2.57981 -12.3248 -10.7856
2 16.1217 -4.65179 -0.0627042
1 9.34644 -8.39569 10.9428
2 2.68122 -12.4259 -10.8858
3 2.52592 6.08762 15.0691
1 -4.02728 -5.37679 15.1295
1 -6.66442 -0.810018 15.2304
3 6.59875 0.734342 -15.2357
1 -6.70625 0.685473 -15.1988
2 -3.90521 5.43232 -15.2838
3 10.7298 13.8138 0.0593778
1 10.6208 -4.62697 13.1436
2 10.6942 4.57928 -12.964
2 -6.67265 16.2138 -0.0336055
3 1.30756 11.4039 12.9504
2 9.48652 6.99058 -12.9379
1 -17.3226 2.36819 -0.045629
3 -1.31458 11.5107 13.0243
3 -9.36265 6.92731 -13.0526
2 -10.5534 -13.8307 0.0861105
2 -10.8433 -4.6005 13.0338
2 -10.5314 4.61125 -13.0234
2 6.74274 -16.2641 -0.0635092
2 -9.3542 -6.73174 13.0179
2 -1.34594 -11.5284 -13.0458
3 17.4197 -2.32148 0.0531478
2 9.34946 -6.86418 13.1167
3 1.35635 -11.4908 -13.1302
3 1.23894 8.4121 15.1702
1 -6.72844 -5.30066 15.2433
2 -8.08362 -3.07617 15.2377
3 7.8975 3.05068 -15.2037
1 -7.97653 3.02344 -15.2684
2 -6.63087 5.35443 -15.3197