3043
 Atoms. Timestep: 6000
2 -0.0478593 -0.126481 0.0731663
3 2.82072 0.0498058 -0.0238798
2 1.17927 2.26386 -0.0931379
2 -1.39273 2.25381 0.110001
3 -2.76425 -0.22806 0.11001
2 -1.29581 -2.4185 0.00758627
2 1.48614 -2.35191 -0.056524
1 1.28268 -0.722069 2.12791
3 -0.0751779 1.62511 2.06174
2 -1.42205 -0.691718 2.21185
2 0.082807 -1.51074 -2.19312
3 1.47855 0.809863 -2.17989
2 -1.53214 0.873761 -2.27615
2 5.40364 -0.179153 0.0149069
2 2.67305 4.60967 -0.0421116
1 -2.63755 4.64567 0.00438511
3 -5.4888 0.0534487 -0.00412508
1 -2.95163 -4.55834 -0.0386775
2 2.67416 -4.61678 -0.0512855
1 2.64434 -1.48694 4.33404
3 -0.0504285 3.26538 4.62336
2 -2.83299 -1.58913 4.45008
1 0.0115041 -3.20839 -4.30259
1 2.79413 1.51253 -4.39818
2 -2.80999 1.41012 -4.41439
2 4.11214 2.23847 0.0470982
2 4.10122 -0.604825 2.17781
2 4.12007 0.615888 -2.16902
1 0.105238 4.95853 0.0196571
2 1.32576 3.91301 2.32452
2 2.70961 3.16337 -2.1723
1 -4.04965 2.2628 -0.115466
2 -1.37487 3.74888 2.50179
1 -2.70032 3.0877 -2.30623
2 -4.36614 -2.27929 0.134975
2 -4.11489 -0.87719 2.34372
3 -4.24495 0.704841 -2.28878
2 0.0580243 -4.59345 0.0855872
2 -2.90798 -3.07856 2.22866
2 -1.45821 -3.83265 -2.03252
3 4.04425 -2.28739 -0.0108143
3 2.4616 -3.26624 2.26559
2 1.44501 -3.88353 -2.24665
1 1.32684 0.958684 4.28894
2 -0.0705073 -1.65574 4.23504
1 -1.17548 0.755924 4.25024
1 1.45314 -0.712628 -4.40703
2 -1.24608 -0.96157 -4.50709
1 -0.0819025 1.4705 -4.39011
2 2.63832 1.641 2.14525
1 -0.0716512 3.31543 -2.14703
1 -2.72504 1.41075 2.25658
1 -2.58149 -1.56144 -2.20647
3 -0.188881 -3.23122 2.1756
3 2.75911 -1.56743 -2.13945
2 8.16476 0.153945 -0.0270705
1 4.11887 7.0081 0.114714
2 -4.05017 7.01443 0.168607
1 -8.1506 0.0146779 0.0371016
1 -4.18081 -6.92278 0.0281778
2 3.91844 -6.89446 -0.016913
2 4.15685 -2.28999 6.50679
1 0.124398 4.68861 6.93441
2 -4.23595 -2.39727 6.64035
3 -0.0840004 -4.64488 -6.6074
2 4.19769 2.23293 -6.52018
2 -4.03541 2.1562 -6.68509
2 6.82309 2.35169 0.0677082
3 6.89645 -0.702069 2.20767
1 6.80378 0.787949 -2.09782
2 1.40392 7.17222 0.0758817
3 2.72407 6.08861 2.19251
3 4.05301 5.42397 -2.09243
2 -5.29731 4.53807 0.127077
1 -2.69666 6.11429 2.36998
2 -4.11011 5.33049 -2.21696
2 -6.8453 -2.18168 0.0121824
1 -6.90025 -0.872262 2.25814
2 -6.79715 0.741944 -2.16903
1 -1.49126 -6.94568 0.0232046
2 -4.00036 -5.43936 2.24362
2 -2.98348 -6.23548 -2.18255
1 5.3593 -4.63946 -0.182887
2 3.95108 -5.26918 2.29345
3 2.61144 -6.2043 -2.24983
1 2.87002 -0.0787942 6.78022
2 1.24158 -2.26429 6.6191
2 -1.28732 2.29545 6.86801
1 1.42971 -2.36723 -6.60896
1 -1.23307 -2.32894 -6.6076
2 1.28063 2.43147 -6.66982
1 5.37367 4.60993 0.148981
1 5.42304 -1.53144 4.43215
3 5.32116 1.50742 -4.32884
2 -1.32075 7.11182 0.194154
1 1.19581 5.48599 4.55056
1 4.08216 3.86436 -4.28758
1 -6.67713 2.43885 -0.0943504
2 -1.27138 5.54145 4.5133
2 -4.08802 3.86905 -4.47081
3 -5.56628 -4.57337 0.0983938
3 -5.38449 -1.52273 4.53057
3 -5.35577 1.49211 -4.54571
2 1.24329 -7.00614 -0.142243
3 -3.92671 -4.03086 4.58534
1 -1.50959 -5.48837 -4.35276
1 6.90049 -2.28248 -0.00370901
1 3.95657 -3.87609 4.429
1 1.27854 -5.49774 -4.35703
2 1.44932 2.24643 6.79797
1 -1.3771 -2.34922 6.51011
2 -2.70786 -0.0427116 6.74828
2 2.79607 -0.104384 -6.54518
2 -2.66741 0.0966761 -6.71157
2 -1.39529 2.47151 -6.54562
2 5.39977 3.00984 -2.04148
2 0.018197 6.22648 2.2879
1 -5.49522 3.0317 -2.48774
3 -5.53342 -3.1207 2.26571
2 -0.166837 -6.13564 -2.16459
2 5.3024 -2.83812 2.16675
1 -0.0843917 0.0632867 6.65447
2 0.116893 -0.0754335 -6.51105
1 5.45002 1.68071 2.16774
1 1.29205 5.77498 -2.29427
2 -4.22391 3.79743 2.33103
2 -5.2828 -1.71071 -2.2298
2 -1.43586 -5.64491 2.124
3 3.95563 -4.03174 -2.14665
1 4.11215 0.798885 4.38365
1 1.32391 3.88133 -4.36413
2 -2.63747 3.04155 4.64525
2 -3.96817 -0.893868 -4.31138
2 -1.41792 -4.11234 4.25016
1 2.75606 -3.14929 -4.35675
2 4.00274 3.89455 2.35067
3 -1.55074 5.49069 -2.22903
2 -5.56281 1.49989 2.1573
3 -4.06804 -3.94516 -2.45957
2 1.33451 -5.54333 2.16398
1 5.39095 -1.74769 -2.22625
3 2.77648 3.14679 4.65442
3 -1.45668 3.99128 -4.3995
1 -4.18697 0.650721 4.43302
2 -2.72263 -3.22607 -4.5127
2 1.21419 -4.13694 4.35341
3 4.13094 -0.797154 -4.32825
2 11.126 0.124744 0.187627
1 5.53045 9.53123 0.0572093
3 -5.3431 9.32993 0.0887465
2 -10.8439 -0.0672282 -0.0147908
2 -5.51469 -9.22035 0.17814
1 5.33513 -9.36663 0.0405438
2 5.48181 -2.98852 8.91517
2 0.200701 6.30882 8.99361
2 -5.41138 -3.21423 8.88598
3 0.0959668 -6.2224 -8.70394
1 5.42734 3.11373 -8.90349
2 -5.37159 3.11751 -8.87352
2 9.48839 2.33064 -0.0140482
2 9.52259 -0.843054 2.25225
1 9.45844 0.797123 -2.1314
1 2.7868 9.43623 0.0511691
1 4.062 8.5054 2.31023
2 5.55124 7.86668 -1.95084
2 -6.7419 6.94792 0.1864
1 -4.03418 8.61861 2.23547
1 -5.39578 7.77726 -2.17639
3 -9.55927 -2.51876 0.033859
2 -9.41957 -0.859421 2.24803
3 -9.41701 0.776194 -2.34358
3 -2.87604 -9.42483 -0.0514277
1 -5.47666 -7.69495 2.21848
1 -4.19888 -8.59429 -2.3099
2 6.68207 -6.96336 -0.00205824
2 5.22981 -7.6463 2.18163
1 4.02955 -8.68654 -2.23264
2 4.03097 -0.739784 8.9176
2 2.72022 -3.04494 8.76461
2 -1.18933 3.90213 9.09676
2 1.25748 -3.99951 -8.6543
2 -1.51589 -3.98254 -8.6558
2 2.78223 3.03939 -8.72509
3 8.0211 4.7082 0.249011
1 8.25959 -1.47994 4.47432
3 8.12936 1.30526 -4.23257
3 0.155038 9.38268 0.0955434
3 2.69033 7.77642 4.41115
2 5.37983 6.25619 -4.34559
3 -7.96786 4.67714 -0.00917878
1 -2.55987 7.81982 4.50052
1 -5.32519 6.21508 -4.62754
1 -8.1352 -4.66448 -0.0513968
1 -8.00165 -1.67096 4.52294
2 -8.12843 1.7434 -4.33449
1 -0.106428 -9.51125 -0.0659513
1 -5.44058 -6.15676 4.38165
3 -2.80677 -7.80041 -4.41186
3 8.05781 -4.75074 -0.0672626
2 5.3583 -6.14438 4.45024
1 2.75651 -7.89214 -4.43114
3 2.96126 1.51404 8.87925
1 0.0956962 -3.12274 8.84297
2 -2.67282 1.49394 9.08449
2 2.76124 -1.73651 -8.81715
2 -2.74968 -1.74019 -8.9478
3 -0.0164495 2.99306 -8.80648
2 6.73979 7.07277 0.196263
3 6.90101 -2.25643 6.68473
1 6.94871 2.27103 -6.55919
2 -2.58785 9.39411 0.164774
3 1.41544 7.01251 6.77744
1 5.30399 4.56105 -6.67162
2 -9.4251 2.42178 -0.0292382
1 -1.24863 7.02718 6.82126
2 -5.39981 4.61076 -6.71634
1 -6.90235 -6.99153 -0.00805403
2 -6.80443 -2.52932 6.67403
3 -6.63223 2.31439 -6.56783
2 2.81445 -9.45322 -0.0817847
3 -5.46496 -4.70782 6.69489
1 -1.39594 -6.98526 -6.6052
2 9.4511 -2.2009 -0.018961
1 5.40704 -4.6124 6.55932
3 1.34177 -7.00731 -6.52222
2 1.45536 3.92827 8.9363
2 -2.48446 -3.05776 8.78837
3 -3.89339 -0.796846 8.87404
3 3.94904 0.754678 -8.64735
2 -4.14055 0.669525 -8.88958
3 -2.70103 3.04415 -8.76641
3 8.07692 3.05045 -2.11176
1 1.39816 8.49801 2.29611
2 -6.66994 5.38059 -2.03491
2 -8.11833 -3.11734 2.19549
2 -1.43489 -8.57999 -2.1722
1 6.64041 -5.30502 2.25035
1 1.34926 -0.836302 8.92799
1 0.0183135 -1.59748 -8.94438
2 6.86638 3.74434 -4.26087
3 -0.0247134 7.95492 4.47386
3 -6.86061 4.01775 -4.32429
2 -6.80296 -3.84252 4.47138
2 -0.259316 -7.79374 -4.47201
2 6.65889 -3.80197 4.39989
1 -1.3358 -0.884767 8.92286
3 -1.26952 0.691536 -8.77566
3 8.27695 1.51744 2.30017
2 2.73465 7.93969 -2.09749
3 -5.44627 6.29427 2.38247
2 -8.27356 -1.57949 -2.24383
1 -2.66007 -7.90485 2.25853
3 5.43521 -6.34885 -2.30654
1 6.86017 0.735563 4.34951
1 2.67241 6.32198 -4.45561
1 -3.93618 5.48194 4.46502
2 -6.81236 -0.689194 -4.42828
3 -2.6614 -6.29646 4.44278
3 4.10955 -5.59587 -4.49954
2 5.53401 -0.0130001 6.65564
3 2.72005 4.6862 -6.6372
1 -2.60842 4.56116 6.68878
1 -5.44271 -0.000122951 -6.68529
2 -2.8644 -4.85416 6.57149
1 2.56928 -4.84574 -6.57483
2 6.76978 5.35078 -2.07789
1 -1.28747 8.63384 2.3143
3 -8.20797 3.14165 -2.15359
2 -6.70262 -5.54495 2.16348
1 1.24773 -8.48812 -2.28448
1 8.19102 -3.16328 2.19691
3 0.078529 1.54419 8.94551
2 1.30212 0.681338 -8.75791
1 6.79717 4.00688 2.39324
3 -0.110585 8.02625 -2.21086
3 -6.72572 3.95081 2.26195
3 -6.81414 -3.88411 -2.17844
3 -0.0204655 -7.91385 2.08732
3 6.82848 -3.91655 -2.19118
2 5.39898 3.00641 4.71367
3 -0.0802037 6.25595 -4.57653
1 -5.5602 3.05486 4.45872
1 -5.40377 -3.09619 -4.38069
2 -0.0945576 -6.44574 4.40067
2 5.43992 -3.11495 -4.37855
3 4.10788 2.3245 6.78441
1 -0.0688813 4.72211 -6.61281
1 -3.99315 2.31192 6.63731
1 -4.00185 -2.32093 -6.49953
2 -0.0805818 -4.76595 6.6352
2 4.19428 -2.25599 -6.52115
2 5.28508 6.27401 2.39464
2 -2.76379 7.77184 -2.16214
2 -8.19458 1.70066 2.20909
3 -5.59629 -6.15453 -2.34574
1 2.70817 -7.75135 2.26623
1 8.04003 -1.56231 -2.22603
2 3.8367 5.53855 4.52191
2 -2.70949 6.30998 -4.31776
3 -6.93596 0.832111 4.35607
2 -4.14471 -5.46742 -4.52993
1 2.69719 -6.33823 4.51302
2 6.69623 -0.710225 -4.39278
3 2.66659 4.54594 6.76121
2 -2.77289 4.69448 -6.60287
1 -5.57684 -0.0713266 6.6359
3 -2.84859 -4.57775 -6.63034
1 2.67127 -4.45819 6.65685
1 5.45513 -0.0047817 -6.4955
2 13.6131 0.115969 0.0308091
3 6.81877 11.8128 -0.0698791
2 -6.61833 11.7502 -0.062565
2 -13.5879 -0.0931798 -0.134232
2 -6.87654 -11.7465 -0.0289807
3 6.62573 -11.7983 0.0788241
2 6.66539 -3.87406 11.0943
1 0.0586259 7.85067 11.2211
2 -6.87519 -3.88869 11.086
1 -0.142499 -7.85466 -11.0123
2 6.91028 3.98266 -11.0362
2 -6.83851 3.84354 -10.9342
3 12.1738 2.38048 0.0503038
2 12.3549 -0.822958 2.29057
2 12.2102 0.804784 -2.25696
2 4.25839 11.6683 0.104843
2 5.40315 10.785 2.26897
1 6.875 10.1854 -2.08796
1 -8.18457 9.16692 0.169549
1 -5.29199 10.9879 2.0983
3 -6.67919 10.1631 -2.04216
2 -12.1782 -2.33027 -0.190819
2 -12.2826 -0.724331 2.15412
1 -12.035 0.570925 -2.20892
2 -4.13469 -11.5728 0.154903
1 -6.88831 -10.1252 2.27802
2 -5.49301 -10.835 -2.15452
1 8.18275 -9.39876 -0.0527335
2 6.69312 -9.97468 2.15619
2 5.28955 -10.9972 -2.29065
2 5.34785 -1.46416 11.0971
2 4.09934 -3.88622 11.0181
1 -1.37667 5.53528 11.245
1 1.22014 -5.41593 -11.0856
2 -1.42566 -5.62588 -10.8304
2 4.08226 3.7696 -11.0592
1 10.8662 4.73097 -0.0408426
3 10.8327 -1.50296 4.44632
3 10.8994 1.49437 -4.29861
1 1.29361 11.8168 -0.0488865
1 4.01979 9.98375 4.47334
1 6.87808 8.59717 -4.50174
2 -9.30229 6.85572 0.222084
1 -3.89488 10.1574 4.37754
2 -6.6065 8.96979 -4.38486
1 -11.0304 -4.80012 -0.108621
3 -10.7653 -1.47238 4.22058
3 -10.778 1.50787 -4.39436
3 -1.22566 -11.8404 -0.147307
2 -6.86483 -8.69133 4.30079
2 -3.93181 -10.1157 -4.43266
1 9.47869 -7.05132 -0.141904
1 6.68886 -8.57495 4.29615
2 3.94605 -10.2802 -4.52723
3 4.04637 0.878854 10.9209
3 1.46952 -3.86724 11.0322
2 -2.70867 3.1612 11.1827
2 2.75161 -3.14483 -11.0816
2 -2.88607 -3.21046 -10.8926
2 1.31027 3.83113 -11.0598
1 9.4684 7.04791 0.230308
2 9.5425 -2.20886 6.76612
2 9.44989 2.48153 -6.50509
2 -1.31852 11.9321 0.0404384
3 2.72286 9.43578 6.68676
2 6.72893 7.10955 -6.71479
1 -10.8218 4.66598 0.118437
1 -2.84771 9.34765 6.81669
2 -6.8616 6.99065 -6.51723
1 -9.54258 -7.17204 -0.00852809
1 -9.56873 -2.33719 6.47894
1 -9.53246 2.29751 -6.56113
3 1.38865 -11.7173 -0.0527306
1 -6.82669 -7.16463 6.50941
2 -2.71258 -9.30609 -6.75172
1 10.7837 -4.71416 0.0284424
2 6.72167 -7.03208 6.63244
2 2.6412 -9.25948 -6.50916
2 2.88118 3.11779 10.9958
1 -1.13101 -3.8975 11.0135
2 -4.13763 0.827173 11.1467
1 3.95821 -0.821769 -11.0632
2 -4.28568 -0.779402 -11.1387
2 -1.35747 3.73803 -10.9125
1 8.17134 9.45112 0.246293
2 8.094 -2.93775 8.872
3 8.18006 3.15736 -8.90422
2 -3.93085 11.7766 0.0754702
1 1.46951 8.51609 8.92888
2 6.6415 5.43838 -8.7551
2 -12.1587 2.47028 0.118381
2 -1.32899 8.59873 8.91048
3 -6.98192 5.47172 -8.82298
3 -8.14447 -9.38316 0.0516949
1 -8.18187 -3.05177 8.79502
2 -8.11811 2.99398 -8.79299
3 4.03154 -11.7918 0.082788
2 -6.74913 -5.59222 8.83731
3 -1.27104 -8.63096 -8.77282
1 12.2049 -2.31082 0.113654
2 6.69654 -5.39836 8.71713
1 1.26527 -8.60066 -8.72253
2 1.44342 5.24517 11.1702
2 -3.90699 -3.92959 11.0455
2 -5.41014 -1.438 11.0942
1 5.49817 1.4972 -10.934
2 -5.33138 1.52135 -11.0249
1 -3.97893 3.73316 -10.9632
1 10.7862 3.08032 -2.1554
3 2.7836 10.88 2.49119
1 -7.95357 7.79664 -2.13236
2 -10.8414 -3.2606 1.98241
1 -2.7776 -11.0054 -2.23581
2 7.95973 -7.67348 2.35005
3 2.74843 -1.75279 10.9695
2 -0.0262567 -2.93307 -11.0799
1 9.36569 3.77396 -4.37495
2 1.45775 10.1047 4.4795
1 -8.20398 6.11941 -4.31759
2 -9.54913 -3.87664 4.27331
2 -1.40762 -10.0917 -4.48138
2 8.11728 -6.05064 4.51937
3 0.0268191 -1.58615 11.1212
1 -1.59414 -0.870721 -10.9979
2 7.92916 4.67907 -6.72765
2 0.051158 9.25248 6.67225
2 -8.09294 4.69818 -6.55963
1 -8.08351 -4.77861 6.58629
3 -0.0201212 -9.37212 -6.46209
3 8.18708 -4.6554 6.64336
2 -2.66799 -1.65062 11.1072
2 -2.6278 1.43969 -11.0177
3 10.7883 1.49473 2.29498
3 4.15605 10.0788 -2.08975
2 -6.7281 8.52973 2.31082
2 -10.8527 -1.67349 -2.3136
2 -3.94172 -10.0322 2.20751
1 6.79967 -8.89563 -2.21396
2 9.69675 0.738492 4.44694
1 4.04053 8.55495 -4.46776
3 -5.27021 7.81412 4.49542
2 -9.52707 -0.601903 -4.45114
1 -3.94256 -8.61512 4.50028
1 5.4641 -7.95683 -4.4814
3 8.21292 0.0495681 6.79383
2 4.0645 6.97556 -6.46454
1 -4.05563 6.90703 6.66418
2 -8.03175 0.0962099 -6.45611
1 -4.09053 -7.13368 6.69586
1 4 -7.01334 -6.68946
1 6.75332 -0.717296 8.78227
2 3.9763 5.41174 -8.89453
1 -2.71778 6.1027 8.95121
1 -6.70203 0.820218 -8.82146
2 -3.9234 -5.56012 8.91618
2 2.74789 -6.39377 -8.82252
3 9.30126 5.45382 -2.08966
2 0.116745 10.8148 2.19135
2 -9.32653 5.48948 -2.08771
2 -9.51423 -5.60565 2.25382
2 -0.0673477 -10.9263 -2.17038
1 9.48996 -5.67073 2.08047
3 1.54333 0.88778 11.1142
2 1.3671 -0.729565 -11.1041
2 8.00636 6.12996 -4.32602
2 -1.23902 10.1894 4.47386
3 -9.4696 3.89659 -4.42437
3 -8.0461 -6.30374 4.38671
3 1.30946 -10.1513 -4.3276
2 9.54028 -3.77475 4.43814
2 -1.19387 0.786117 11.0441
2 0.0872407 1.4631 -11.0089
2 9.55521 3.77749 2.24694
2 1.41126 10.2819 -2.0849
2 -8.06761 6.16612 2.29463
2 -9.48327 -3.86721 -2.36677
3 -1.22393 -10.2234 2.20552
2 7.97561 -6.3856 -2.2655
2 8.08167 3.1337 4.5005
1 1.17386 8.58398 -4.31266
3 -6.72987 5.4222 4.41306
2 -8.03624 -3.22551 -4.50799
3 -1.33392 -8.68628 4.39145
2 6.67259 -5.43393 -4.27627
2 6.91012 2.27629 6.6697
2 1.37715 6.81234 -6.62683
2 -5.43843 4.69233 6.75048
2 -6.90651 -2.35332 -6.71077
1 -1.35038 -7.07923 6.58481
2 5.53312 -4.95546 -6.65148
3 5.44687 1.62322 8.90931
2 1.24018 5.32801 -8.90597
3 -4.0831 3.80388 8.94437
3 -5.37607 -1.68769 -8.83922
2 -1.13196 -5.43213 8.78823
1 3.97742 -3.85229 -8.82709
2 8.12768 7.8603 -2.17792
3 -2.649 10.9762 2.20038
1 -10.7278 2.93779 -2.2247
3 -8.19314 -7.75464 2.27436
2 2.72241 -10.8794 -2.30484
2 10.8682 -2.99569 2.20277
3 0.145942 3.06037 10.9848
2 2.7865 1.4599 -11.0762
2 8.11787 6.20834 2.29878
2 -1.26877 10.2098 -2.05693
3 -9.56628 3.88862 2.28539
3 -8.2148 -6.20473 -2.2583
2 1.30267 -10.0946 2.00469
2 9.381 -4.1513 -2.13621
2 6.83901 5.55684 4.5985
2 -1.37431 8.61481 -4.48151
2 -8.3294 3.23124 4.39233
2 -6.84761 -5.5126 -4.39325
2 1.32258 -8.66195 4.39533
1 8.14517 -3.27938 -4.2631
1 5.53063 4.76656 6.66805
2 -1.30766 7.15414 -6.7135
2 -6.81579 2.34198 6.60691
1 -5.53082 -4.74539 -6.51555
1 1.3133 -7.09309 6.63584
2 6.93077 -2.21089 -6.72216
2 4.21123 3.81508 8.82991
2 -1.35731 5.41037 -8.69493
2 -5.30095 1.405 8.79875
2 -4.29618 -4.0572 -8.76235
1 1.47547 -5.49524 8.75724
2 5.37578 -1.58948 -8.88069
2 6.95159 8.56801 2.42846
1 -3.92922 10.0555 -2.01846
1 -10.925 1.55887 2.05773
1 -6.93878 -8.57337 -2.06357
3 3.98683 -10.0769 2.15874
1 10.8615 -1.52901 -2.20874
2 5.40415 7.92672 4.4046
3 -4.08534 8.58885 -4.28053
2 -9.40103 0.726478 4.494
2 -5.58286 -7.8705 -4.25231
3 3.97214 -8.52232 4.46127
1 9.72129 -0.76152 -4.4606
2 4.02129 7.21437 6.62769
2 -3.98563 7.08796 -6.63664
1 -8.40076 0.0542224 6.69018
2 -4.2612 -7.06784 -6.59116
3 4.11887 -6.80866 6.77313
3 8.22272 0.025854 -6.59326
2 2.76137 6.16973 8.81902
1 -3.99743 5.45527 -8.92256
2 -6.66955 -0.81968 8.85976
1 -2.61076 -6.39135 -8.95131
3 4.19666 -5.21488 8.74242
1 6.84169 0.72926 -8.84673
2 16.3014 -0.00179131 -0.0428706
2 8.15596 14.2003 -0.137685
2 -8.37251 14.1616 -0.0206979
2 -16.4096 -0.161696 -0.13131
2 -8.21989 -13.9846 0.00450421
3 7.98489 -13.9256 -0.115603
1 8.10723 -4.52976 13.3463
2 0.0672429 9.48145 13.3315
2 -8.05069 -4.69736 13.398
1 -0.0722914 -9.4305 -13.2139
3 8.23666 4.68793 -13.2082
3 -8.01215 4.49007 -13.1344
1 14.9495 2.26122 0.0688584
1 14.8336 -0.835392 2.11998
2 14.9539 0.951498 -2.08466
3 5.38175 14.0009 -0.0427511
2 6.60926 13.3145 2.19947
2 8.00319 12.5139 -2.25315
1 -9.48773 11.7048 0.038178
1 -6.83698 13.2554 2.2161
2 -8.14506 12.4877 -2.33231
3 -14.9471 -2.47957 -0.154216
2 -14.99 -0.697365 1.95477
2 -14.9318 0.648331 -2.37007
1 -5.49856 -13.9731 -0.0649997
1 -8.11433 -12.5655 2.22396
3 -6.72711 -13.1469 -2.1423
3 9.44839 -11.68 0.0534347
2 8.01285 -12.4805 2.20196
3 6.65059 -13.4118 -2.19131
2 6.70077 -2.32387 13.3462
1 5.26917 -4.61462 13.276
2 -1.37553 7.13287 13.3366
3 1.26262 -7.09393 -13.2286
3 -1.451 -7.05242 -13.2318
2 5.39682 4.6287 -13.3183
2 13.5374 4.72857 0.0174287
1 13.4769 -1.5826 4.42868
2 13.6551 1.24422 -4.35697
3 2.83597 14.0384 0.0768416
2 5.32772 12.5871 4.57987
1 8.2249 11.0824 -4.44969
2 -10.9177 9.33055 0.0707462
1 -5.35656 12.4924 4.57885
1 -8.04843 10.9589 -4.29396
2 -13.6335 -4.68282 -0.244483
1 -13.6942 -1.5756 4.2297
3 -13.4622 1.56683 -4.47394
2 -2.76883 -13.8144 -0.0475839
3 -8.08841 -11.1757 4.62113
2 -5.50008 -12.4582 -4.22678
3 10.809 -9.43515 -0.0528943
2 8.07652 -10.8168 4.16953
3 5.30225 -12.5033 -4.38423
3 5.42141 -0.00553783 13.2493
3 2.55205 -4.65618 13.1543
1 -2.81049 4.61856 13.4316
2 2.45119 -4.88387 -13.2944
2 -2.78994 -4.82239 -13.2288
3 2.76412 4.66189 -13.138
2 12.1814 6.9728 0.185964
3 12.2494 -2.26077 6.69918
2 12.0991 2.40058 -6.44633
2 0.111445 14.0659 -0.0301259
1 4.08162 11.7568 6.72332
2 8.33809 9.48785 -6.68221
2 -12.2042 7.00874 -0.0435992
1 -3.95794 11.8037 6.87911
2 -8.10719 9.37331 -6.50262
2 -12.3042 -7.14737 -0.0898622
2 -12.3432 -2.43145 6.57827
1 -12.0618 2.22744 -6.63894
2 0.0800797 -14.0293 -0.0855268
2 -8.12569 -9.28046 6.61096
1 -4.08794 -11.7291 -6.74886
3 12.2623 -6.99652 -0.128711
2 8.13468 -9.48787 6.34587
3 4.04225 -11.717 -6.57334
1 4.129 2.35135 13.2391
3 0.0369266 -4.72794 13.2334
2 -4.10686 2.41468 13.2789
1 4.04846 -2.39664 -13.2506
1 -4.07559 -2.44653 -13.2773
2 0.175628 4.5765 -13.2641
1 10.8414 9.5947 -0.0313281
2 11.0894 -2.9933 8.95521
2 10.8731 3.07034 -8.84501
2 -2.67807 14.1143 0.178357
2 2.78932 10.9111 8.94215
3 8.09287 7.93625 -8.77265
2 -13.582 4.79743 -0.00317465
3 -2.81179 10.8945 9.04813
1 -8.23772 7.69087 -8.74023
2 -10.824 -9.33797 0.0167046
2 -11.0882 -3.01969 8.84731
3 -10.6908 3.1894 -8.72593
2 2.74464 -14.1844 0.0307395
1 -8.07638 -8.01248 8.83815
3 -2.56377 -11.0876 -8.71528
2 13.5954 -4.71975 0.0794062
1 8.0552 -7.75246 8.81496
3 2.72353 -10.9714 -8.72991
3 2.6597 4.48285 13.2897
1 -2.5518 -4.83412 13.2212
2 -5.39672 0.0755234 13.2435
1 5.29 0.0286621 -13.2061
2 -5.4787 -0.0817253 -13.3463
3 -2.65186 4.61132 -13.2266
2 9.44071 11.8272 -0.0740516
2 9.53322 -3.83444 11.0847
3 9.7079 4.05713 -11.046
2 -5.48166 14.2088 -0.0994053
2 1.32788 10.2084 11.143
2 8.34426 6.17858 -11.0308
2 -14.8866 2.14936 -0.114279
3 -1.28681 10.2027 11.1421
2 -8.21583 6.2442 -10.9911
3 -9.49397 -11.6116 0.0693509
2 -9.5353 -3.89575 10.9077
1 -9.34796 3.81378 -10.9624
1 5.26349 -14.147 -0.0340248
2 -7.86408 -6.32414 11.1436
1 -1.38422 -10.1696 -10.9023
2 14.8217 -2.49131 -0.292314
3 8.10899 -6.00261 10.9091
2 1.08991 -10.0332 -10.9584
2 1.3672 6.90178 13.3243
2 -5.32224 -4.75034 13.2023
2 -6.75047 -2.35782 13.2118
1 6.79437 2.3567 -13.1787
1 -6.79136 2.21931 -13.4174
2 -5.35503 4.5745 -13.1794
1 13.4916 3.19784 -2.15976
2 4.08557 13.1551 2.26885
2 -9.47494 10.1531 -2.06344
2 -13.6685 -3.12071 2.0212
2 -4.17697 -13.2006 -2.16033
2 9.36975 -9.99951 2.02388
3 4.0668 -2.24278 13.1741
2 -0.139256 -4.79734 -13.052
2 12.0426 3.86341 -4.30249
2 2.75101 12.4651 4.56551
2 -9.47582 8.57419 -4.24987
2 -12.3214 -3.86448 4.39045
2 -2.70587 -12.5241 -4.42279
2 9.50098 -8.51056 4.243
3 1.34794 -2.30649 13.1467
3 -1.35716 -2.50119 -13.211
1 10.6967 4.85053 -6.5494
2 1.37039 11.7179 6.79937
2 -9.55208 7.01074 -6.49253
1 -10.8998 -4.72743 6.62015
1 -1.37855 -11.7056 -6.66648
2 9.32405 -7.04405 6.70525
3 -1.28471 -2.36308 13.1679
2 -2.68716 -0.000782445 -13.403
1 9.41658 5.53159 -8.93742
3 0.0760349 10.8876 8.88428
2 -9.42929 5.44277 -8.92461
2 -9.47565 -5.49173 8.79907
2 -0.0607016 -10.8083 -8.66483
2 9.45534 -5.3929 8.72987
2 -4.11597 -2.21302 13.2735
1 -4.06008 2.3441 -13.3504
3 13.545 1.6148 2.2009
1 5.44099 12.4396 -2.16518
1 -7.97607 10.875 2.32612
1 -13.4293 -1.6335 -2.15692
2 -5.44607 -12.3638 2.32537
1 8.15214 -11.2317 -2.17905
1 12.1917 0.963099 4.36501
3 5.53496 10.947 -4.36816
1 -6.7126 10.0407 4.56617
2 -12.2233 -0.785378 -4.44261
1 -5.29726 -10.96 4.47236
2 6.83604 -10.3858 -4.31865
2 10.8858 0.072993 6.58226
2 5.63757 9.63814 -6.57787
2 -5.22063 9.33283 6.6422
2 -10.8514 -0.13782 -6.77503
3 -5.34666 -9.26249 6.59712
1 5.34215 -9.52304 -6.67507
2 9.45631 -0.834934 8.98623
1 5.3993 7.77223 -8.63619
3 -3.9672 8.48391 8.8085
3 -9.576 0.849177 -8.69834
2 -5.35838 -7.97697 8.7963
3 4.00692 -8.67987 -8.76612
2 8.1249 -1.54276 11.2057
2 5.47269 6.16569 -11.0787
2 -2.78102 7.73855 10.995
2 -7.95131 1.46491 -11.1983
3 -5.20731 -6.31012 11.0093
1 2.67815 -7.91132 -10.9543
2 11.9813 5.45806 -2.27457
2 1.45836 13.0843 2.10222
2 -10.7385 7.7205 -2.10952
2 -12.3906 -5.42071 2.09537
2 -1.42801 -13.0728 -2.28543
1 11.0399 -7.99039 1.96471
2 2.84241 -0.0903407 13.0532
3 1.49788 -2.37276 -13.3108
1 10.6559 6.26896 -4.2237
2 -0.00693491 12.546 4.53288
1 -10.9905 6.17987 -4.26919
1 -10.9226 -6.20096 4.31811
3 -0.00999725 -12.3621 -4.24865
2 10.8346 -6.08538 4.3714
2 0.0599576 -0.0304415 13.2113
1 -0.0807931 0.0492916 -13.1852
1 9.42039 7.25112 -6.66466
2 -1.31103 11.5867 6.87421
2 -10.8396 4.62734 -6.52279
1 -9.56697 -7.11785 6.54482
2 1.22369 -11.6398 -6.44107
2 10.723 -4.495 6.76179
2 -2.44776 0.0218242 13.2229
2 -1.27343 2.3163 -13.2163
2 12.1798 3.89138 2.10631
3 2.66922 12.5687 -2.15076
2 -9.47958 8.38541 2.33987
3 -12.1127 -4.13976 -2.29111
3 -2.71047 -12.3897 2.2499
2 9.42029 -8.78061 -2.27968
2 10.9472 3.15377 4.37203
1 2.79574 10.92 -4.35361
3 -8.06459 7.66377 4.35921
3 -10.7444 -3.06448 -4.40845
2 -2.62485 -10.8094 4.4758
3 8.05578 -7.93213 -4.4553
3 9.59752 2.32748 6.68446
2 2.60983 9.12532 -6.6681
1 -6.87643 7.00569 6.67037
2 -9.54861 -2.37641 -6.5916
3 -2.64239 -9.42793 6.60965
1 6.83133 -7.28656 -6.67269
2 8.2623 1.57614 8.88054
3 2.53897 7.65855 -8.91019
1 -5.4188 6.23985 8.8412
1 -8.15067 -1.51361 -8.86634
1 -2.75651 -7.8918 8.89372
1 5.40941 -6.25667 -8.78174
2 6.64351 0.847256 11.1594
2 2.65818 6.25429 -11.0683
3 -4.12313 5.49553 11.1675
3 -6.85278 -0.843273 -11.0127
2 -2.53997 -6.37008 11.1127
2 3.90991 -5.6205 -11.046
1 10.6909 7.72825 -2.08042
2 -1.26552 13.4481 2.19659
2 -12.3252 5.37907 -2.26359
2 -10.8696 -8.07661 2.24558
2 1.48584 -13.3161 -2.12232
2 12.1375 -5.36927 2.08747
2 1.33092 2.22879 13.1679
2 2.67343 -0.226309 -13.3146
2 9.43537 8.70733 -4.4598
2 -2.58927 12.5357 4.51681
3 -12.1042 3.83736 -4.3858
3 -9.57978 -8.72254 4.49937
2 2.59296 -12.5313 -4.34295
2 12.29 -3.88822 4.3836
3 -1.14161 2.288 13.0617
3 1.44828 2.20794 -13.2312
2 10.9119 6.33203 2.40252
3 -0.0624897 12.6211 -2.12588
3 -10.9572 6.27706 2.16833
2 -10.7812 -6.25297 -2.09
2 -0.0266092 -12.5428 2.12203
2 10.914 -6.43146 -2.19263
1 9.45971 5.46743 4.35591
2 0.000636048 10.8437 -4.31763
3 -9.62805 5.35767 4.34116
2 -9.48442 -5.57011 -4.38855
2 -0.132352 -10.9264 4.38244
3 9.45607 -5.49232 -4.43594
2 8.34173 4.84675 6.70211
2 0.0252993 9.41802 -6.66601
1 -8.18764 4.59807 6.53786
2 -8.09073 -4.866 -6.65001
2 -0.0310184 -9.52144 6.7405
2 8.17745 -4.84262 -6.78154
2 6.932 3.81611 8.79097
2 0.032965 7.61248 -8.82339
1 -6.82046 4.01353 8.77915
2 -6.82431 -4.04277 -8.91799
2 -0.0478164 -7.87679 8.96806
3 6.77649 -3.93835 -8.87263
2 5.49941 3.21478 11.0255
2 0.0994462 6.25738 -10.9841
2 -5.49484 3.13583 11.0159
2 -5.56979 -3.1867 -11.0119
3 0.149588 -6.37032 10.94
2 5.44332 -3.08086 -11.0493
2 9.55065 10.156 -2.06026
1 -3.85793 13.262 2.29576
2 -13.473 3.06697 -2.20978
2 -9.44499 -10.2958 2.30952
3 4.04444 -13.3273 -2.17178
3 13.5363 -3.02776 2.06827
2 -0.0596453 4.49479 13.0903
1 3.95226 2.24673 -13.2532
3 9.53762 8.54527 2.14527
3 -2.73714 12.5386 -2.06554
3 -12.2294 3.82084 2.2374
3 -9.52724 -8.6749 -2.23733
3 2.73981 -12.28 2.12787
1 12.2738 -3.83877 -2.2458
3 8.13781 7.81769 4.64829
1 -2.66205 10.9096 -4.28964
2 -10.9131 3.15598 4.37595
3 -8.2394 -7.90321 -4.42322
2 2.83296 -10.7758 4.36751
1 10.944 -3.04467 -4.50868
2 6.754 7.2425 6.6561
2 -2.72239 9.53028 -6.58804
1 -9.55945 2.37851 6.717
3 -6.78505 -7.17971 -6.49535
3 2.72791 -9.3914 6.64538
1 9.40844 -2.35966 -6.59992
2 5.40328 6.26115 8.78087
3 -2.76574 7.74542 -8.77567
1 -8.05523 1.50088 8.89798
3 -5.31791 -6.47854 -8.81104
2 2.88045 -7.76029 8.79041
3 8.00923 -1.53558 -8.92154
3 4.00801 5.44866 10.8721
2 -2.71331 6.22303 -10.9838
2 -6.92266 0.813711 10.9787
1 -3.9977 -5.61043 -11.0328
2 2.80239 -6.17934 11.0022
2 6.72379 -0.849166 -11.0726
2 8.11745 10.9186 2.21096
1 -5.2158 12.4008 -2.11035
3 -13.6942 1.54266 1.99257
3 -8.14178 -10.9165 -2.1493
2 5.31192 -12.3868 2.10181
2 13.6109 -1.65251 -2.37384
3 6.65325 10.3538 4.43844
3 -5.33283 11.0025 -4.13879
1 -12.1393 0.841525 4.22372
2 -6.94453 -10.1428 -4.45195
3 5.42415 -10.8835 4.36791
1 12.4194 -0.819694 -4.51327
1 5.47742 9.51551 6.59093
2 -5.33729 9.28175 -6.5457
2 -11.029 -0.0404006 6.59101
2 -5.30289 -9.37197 -6.57651
2 5.47702 -9.29346 6.56378
1 10.9784 0.119551 -6.72958
2 4.00125 8.765 8.77689
2 -5.36419 7.82487 -8.86909
2 -9.49808 -0.885337 8.82536
1 -3.96501 -8.73884 -8.94524
3 5.46386 -7.73042 8.73197
2 9.49482 0.667513 -8.78456
2 2.85656 7.74184 11.1825
2 -5.3304 6.18317 -10.9465
2 -8.08029 -1.54737 11.1186
3 -2.72963 -7.90313 -11.0273
2 5.35833 -6.15916 10.941
2 8.21706 1.69625 -10.9303
3 18.9741 -0.062446 -0.218794
3 9.447 16.3672 0.126393
3 -9.3454 16.3486 -0.105074
3 -19.0058 0.00252358 -0.0447928
1 -9.61657 -16.4779 0.0342658
2 9.37218 -16.7071 0.0805666
1 9.64819 -5.44852 15.5076
2 0.0500678 11.1552 15.5516
2 -9.42701 -5.50518 15.6489
3 -0.183191 -10.9112 -15.2909
3 9.52245 5.38221 -15.3699
3 -9.24348 5.37292 -15.4219
3 17.6731 2.27165 -0.0905881
1 17.6791 -0.782402 1.97107
2 17.4885 0.803388 -2.18625
2 6.74297 16.2955 0.0654169
2 7.9442 15.5866 2.31382
1 9.5649 14.9589 -2.35015
3 -10.9152 14.2792 -0.0746757
2 -7.9879 15.8239 2.1374
3 -9.25708 14.8435 -2.33679
1 -17.7508 -2.23671 -0.174463
3 -17.6209 -0.715425 1.96861
2 -17.6599 0.704949 -2.30248
2 -6.76324 -16.2863 -0.0266773
3 -9.61834 -14.8393 2.24147
2 -8.11763 -15.4034 -2.1448
1 10.67 -13.9246 -0.100505
2 9.47903 -14.9229 1.93272
2 8.18371 -15.7163 -1.98478
2 8.12702 -3.10842 15.6527
1 6.69819 -5.2239 15.5562
1 -1.37595 8.68048 15.3648
3 1.30682 -8.72868 -15.3775
3 -1.2886 -8.66577 -15.4722
2 7.01951 5.51515 -15.4134
2 16.1541 4.54604 0.243724
1 16.3383 -1.5353 4.35904
2 16.1892 1.32618 -4.50686
1 4.11755 16.4227 -0.0104567
3 6.61277 14.8388 4.55769
1 9.53047 13.3572 -4.76758
2 -12.1431 11.8236 -0.0711979
2 -6.68259 14.8649 4.512
3 -9.40503 13.2255 -4.55582
2 -16.1719 -4.88285 -0.0996096
2 -16.2935 -1.62049 4.23113
3 -16.2577 1.52908 -4.43958
2 -4.25744 -16.2937 0.0556622
2 -9.48691 -13.3084 4.42525
2 -6.96154 -14.7022 -4.35239
3 12.0956 -11.6823 -0.00481857
1 9.4773 -13.2549 4.28926
1 6.64699 -14.858 -4.35205
1 6.74901 -0.833858 15.4
2 4.03578 -5.40537 15.4336
1 -2.64909 6.43011 15.7121
2 2.34553 -6.44395 -15.4461
2 -2.53954 -6.40627 -15.6028
1 4.05474 5.49457 -15.3989
3 14.8653 7.09482 0.0795359
1 14.8803 -2.2264 6.67477
3 14.8675 2.42271 -6.65493
1 1.26639 16.5474 -0.108022
2 5.20544 14.1904 6.71543
3 9.61658 11.703 -6.76417
2 -13.483 9.38706 0.0467591
1 -5.37852 14.0644 6.8632
1 -9.49783 11.5769 -6.55799
3 -14.8031 -7.03826 -0.011871
2 -15.0732 -2.34333 6.35582
2 -14.719 2.31086 -6.67657
2 -1.45134 -16.1685 0.089415
1 -9.39503 -11.6255 6.72278
2 -5.3053 -14.0178 -6.44608
2 13.4481 -9.35354 -0.00918959
3 9.38952 -11.6597 6.22753
2 5.25991 -14.1142 -6.51771
1 5.53666 1.56177 15.4273
3 1.39986 -5.57237 15.3912
1 -4.08129 3.99073 15.5641
1 4.09575 -4.07435 -15.3131
2 -3.9985 -3.98629 -15.3554
3 1.51127 5.43052 -15.3092
2 13.417 9.30987 0.215084
1 13.4768 -3.09816 8.82974
2 13.6305 3.13759 -8.85978
2 -1.32434 16.4344 0.172487
3 3.96063 13.2463 8.91748
2 9.43864 10.2427 -8.91946
1 -14.9421 6.9311 -0.17823
3 -4.00677 13.2868 8.98103
2 -9.40379 9.97449 -8.61291
3 -13.5358 -9.47832 -0.019604
1 -13.6459 -3.16792 8.92971
1 -13.4678 3.11055 -8.83663
3 1.24173 -16.3352 0.0982576
2 -9.26472 -10.2967 8.8752
2 -3.91633 -13.2777 -8.80022
3 14.7282 -7.1739 -0.0748505
1 9.44285 -10.0444 8.63941
2 4.0568 -13.2764 -8.76129
3 4.19918 3.90122 15.3112
1 -1.25519 -5.38728 15.5203
2 -5.52347 1.66902 15.4425
1 5.44105 -1.58197 -15.4523
2 -5.33531 -1.61121 -15.5154
3 -1.15481 5.51291 -15.2808
1 12.2308 11.768 0.00667888
2 12.2396 -3.91309 11.2092
2 12.2116 4.02522 -11.0732
3 -3.98915 16.2829 0.0229956
3 2.62749 12.5149 11.0811
3 9.3852 8.5639 -11.0122
1 -16.4042 4.64526 0.0654167
3 -2.76548 12.5435 11.1695
2 -9.4403 8.48367 -11.3148
3 -12.1483 -11.6781 -0.00680725
3 -12.2375 -4.08966 11.0866
2 -12.009 3.82126 -11.0337
3 4.02977 -16.4967 -0.0549869
3 -9.45377 -8.49656 11.0518
2 -2.69523 -12.3847 -10.9808
3 16.1292 -4.82761 -0.116236
3 9.36331 -8.43757 10.7925
2 2.62071 -12.4572 -10.9855
2 2.66379 6.21322 15.4104
2 -3.8241 -5.42932 15.4501
2 -6.67474 -0.788844 15.233
3 6.70098 0.836246 -15.2845
3 -6.65061 0.743951 -15.4937
3 -3.79989 5.19518 -15.4212
1 10.8119 14.1188 -0.21391
3 10.7885 -4.72271 13.3501
3 10.8792 4.56753 -13.2972
1 -6.61962 16.6042 -0.0659527
3 1.23681 11.8959 13.3035
3 9.62923 6.92458 -13.1751
3 -17.5927 2.30154 -0.136935
2 -1.45724 11.7437 13.3723
1 -9.7163 7.30276 -13.5214
3 -10.726 -14.1207 -0.0795961
3 -10.5277 -4.84184 13.234
1 -10.7617 4.71894 -13.5064
3 6.70704 -16.4639 0.0276764
2 -9.2744 -7.02403 13.2239
3 -1.32644 -11.7959 -13.0721
1 17.6091 -2.57046 -0.178668
2 9.56361 -6.94895 13.1695
2 1.3116 -11.6374 -13.2052
2 1.18461 8.72186 15.6489
1 -6.5956 -5.43798 15.5298
1 -8.00419 -3.18165 15.5879
2 8.18348 3.01511 -15.4019
3 -8.00029 3.18518 -15.3998
3 -6.65805 5.37824 -15.2337
2 16.3664 3.28833 -2.14654
2 5.29777 15.5862 2.34615
3 -10.6617 12.4926 -2.25792