3798
 Atoms. Timestep: 6000
3 2.53661 -0.0762538 -0.0839031
2 1.43778 2.25804 -0.0137319
2 -1.2039 2.24377 -0.0349447
1 -2.73352 -0.113602 -0.225364
3 -1.51971 -2.49431 -0.00371366
2 1.15079 -2.44229 -0.174183
2 1.30233 -0.835134 2.19755
2 -0.13965 1.50388 2.16319
2 -1.34991 -0.754879 2.12602
2 -0.202988 -1.6112 -2.22473
1 1.12333 0.756627 -1.93005
3 -1.2959 0.569035 -2.26522
1 5.18173 0.0402147 -0.167764
1 2.55638 4.58887 -0.00169726
3 -2.6176 4.61667 -0.0382249
2 -2.76718 -4.7897 0.102392
3 2.62099 -4.75557 0.118914
2 2.48607 -1.64973 4.39764
2 0.164069 3.19283 4.38941
2 -2.80072 -1.65849 4.48219
2 -0.107881 -3.43619 -4.59475
3 2.54291 1.5809 -4.65114
3 -2.64215 1.52713 -4.48005
1 3.89199 2.35937 0.0174733
2 4.02312 -0.665533 2.17493
3 3.89322 0.919487 -2.34133
1 1.3913 3.82564 2.32943
2 2.6116 3.14223 -2.21698
1 -4.11746 2.28684 -0.0593135
2 -1.26728 3.96007 2.24627
1 -2.65108 2.99004 -2.21066
1 -4.19548 -2.291 0.0903277
1 -4.12868 -0.647099 1.96835
1 -4.07533 0.760142 -2.25449
2 -2.93577 -3.05367 2.16595
2 -1.52674 -3.84128 -2.26249
3 3.91998 -2.34264 0.0556417
2 2.43373 -3.17705 2.30991
2 1.43632 -3.86833 -2.21987
3 1.0918 0.761018 4.40492
2 -0.165168 -1.71907 4.32324
1 -1.34957 0.650252 4.58005
2 1.29294 -0.800259 -4.39193
1 -1.5869 -0.92541 -4.3963
2 -0.0930915 1.46637 -4.42743
3 2.48572 1.36514 2.08629
3 0.155333 3.02631 -2.26939
1 -2.67644 1.66531 2.17362
3 -3.05747 -1.67111 -2.23903
2 -0.147499 -3.22766 2.02547
2 2.66557 -1.60204 -2.06993
2 7.97104 0.149833 -0.0752448
1 4.03826 6.95708 -0.0478547
1 -4.09152 7.04168 0.0259201
1 -7.89632 0.164424 0.036311
1 -4.02586 -7.01923 0.0439787
3 3.90693 -6.83253 0.138989
1 3.94096 -2.41731 6.78435
2 -4.12334 -2.52343 6.45155
3 0.159764 -4.82713 -6.64684
2 4.0743 2.31698 -6.63027
3 -4.0657 2.32207 -6.7099
3 6.55307 2.25979 -0.0150094
1 6.68411 -0.845664 2.17339
3 6.60487 0.697408 -2.15747
3 1.29065 6.91935 -0.0266833
1 2.61427 6.22381 2.26092
3 3.91811 5.31724 -2.12682
1 -5.36741 4.68421 -0.0512977
3 -2.65897 6.16368 2.21151
1 -4.08268 5.48495 -2.15883
3 -6.91297 -2.21817 0.0717659
1 -6.67404 -0.667383 2.16809
1 -6.74314 1.04579 -2.12844
1 -1.27419 -7.05433 -0.036948
3 -4.0705 -5.50234 2.24399
1 -2.77529 -6.20226 -2.19364
2 5.34901 -4.61204 -0.14535
2 3.89515 -5.41128 2.42621
3 2.79019 -6.22374 -2.20839
2 2.60873 -0.26451 6.7727
3 1.39884 -2.44538 6.66279
2 -1.41958 2.32449 6.54344
3 1.42539 -2.30413 -6.57064
2 -1.18068 -2.44 -6.77147
3 1.37253 2.35736 -6.59727
1 5.4408 4.61416 -0.0450682
2 5.29771 -1.55803 4.47609
3 5.21716 1.39782 -4.42375
2 -1.43161 6.89667 0.0563688
3 1.28777 5.51046 4.3313
1 4.05256 3.86577 -4.36385
2 -6.7707 2.46501 -0.1043
2 -1.21869 5.3917 4.53815
2 -3.88976 3.87407 -4.42062
3 -5.49967 -4.83872 0.031353
2 -5.42862 -1.44218 4.2081
1 -5.3201 1.66009 -4.37298
2 1.37827 -7.11522 -0.0194569
2 -4.18495 -3.8985 4.19793
1 6.64446 -2.23069 -0.00939108
2 3.93427 -3.9125 4.48273
1 1.06986 -5.66368 -4.35729
1 1.21358 2.26255 6.46004
1 -1.34463 -2.57857 6.69659
2 -2.63787 -0.102873 6.98283
2 2.73049 -0.0533281 -6.43033
2 -2.81409 -0.0490965 -6.57582
2 -1.38937 2.44876 -6.71338
1 5.42497 3.02976 -2.2624
2 0.0261804 6.34737 2.17027
3 -5.30815 3.07766 -2.28389
2 5.22909 -3.16434 2.41424
2 -0.035348 -0.183647 6.55571
2 -0.0155859 0.0101535 -6.80943
1 5.22294 1.53745 2.21063
3 1.19358 5.16554 -2.08538
2 -3.92467 3.93391 2.16412
1 -5.63568 -1.40568 -2.38148
1 -1.29478 -5.48357 2.0608
1 4.10091 -3.9053 -2.2724
1 3.94035 0.682707 4.37008
2 1.25837 3.83473 -4.39443
2 -2.70281 3.01474 4.4278
3 -4.10124 -0.852997 -4.58023
2 -1.62069 -3.96686 4.38587
1 2.61938 -3.17171 -4.32219
3 4.07011 3.95674 2.29761
2 -1.42063 5.3765 -2.13566
3 -5.35542 1.81083 2.42277
2 -4.23195 -4.0352 -2.09908
1 1.19223 -5.44975 2.1583
2 5.31207 -1.61888 -2.29074
3 2.67342 3.06905 4.37385
1 -1.20533 3.95588 -4.55627
1 -4.02297 0.863016 4.36875
2 -2.84186 -3.14204 -4.48686
2 1.29755 -4.04174 4.53797
1 3.93294 -0.784216 -4.26003
2 10.6282 -0.0724831 -0.228466
3 5.48706 9.26844 -0.0241216
1 -5.24555 9.37388 -0.323224
1 -5.53813 -9.30486 -0.202393
1 5.17251 -9.22214 -0.0230444
1 5.17261 -3.25613 8.89063
2 -5.28206 -3.10521 8.76642
2 -0.263516 -6.36681 -8.8297
3 5.39493 3.25629 -8.70426
1 -5.44172 3.05961 -8.92038
3 9.43532 2.31993 -0.132661
2 9.34843 -0.890273 2.11601
2 9.12708 0.744619 -2.2809
1 2.65157 9.26727 -0.0964185
1 4.13633 8.38514 2.28355
2 5.34962 7.62669 -2.205
2 -6.67881 6.92879 -0.00043532
1 -4.05259 8.56105 2.13148
1 -9.41548 -2.3503 -0.091578
2 -9.31104 -0.547327 1.90463
3 -2.89406 -9.31787 0.110927
2 -5.42847 -7.91195 2.1371
3 -4.15042 -8.55318 -2.2889
1 6.68758 -7.01957 0.171558
3 5.28421 -7.94177 2.42679
2 3.93213 -8.57456 -2.07492
2 3.93592 -0.844043 8.86996
3 2.60128 -3.26919 8.84183
2 -1.26392 4.0596 8.88261
2 1.46523 -3.89795 -8.62422
1 -1.43482 -4.09538 -8.76389
2 2.72683 3.13139 -8.71145
2 8.15884 4.37603 -0.132779
1 7.80847 -1.76661 4.53724
3 8.20083 1.47312 -4.43033
2 0.0921435 9.16705 -0.301875
1 2.67446 7.80303 4.49478
2 5.5212 5.98384 -4.3298
3 -8.00698 4.83631 0.0326636
3 -2.58075 7.72388 4.33466
3 -5.25773 6.20361 -4.24726
3 -8.02525 -4.59677 0.00380877
3 -8.11002 -1.52898 4.24473
3 -7.76599 1.46451 -4.58806
3 -0.0722031 -9.38133 -0.0850332
2 -5.36361 -6.24696 4.37084
1 -2.8619 -7.74727 -4.35516
2 8.04852 -4.65008 -0.104725
2 5.41008 -6.33655 4.42621
2 2.68099 -7.80633 -4.38192
2 2.5156 1.34591 8.84354
3 -0.204089 -3.10433 9.01295
1 -2.67202 1.53784 8.87324
2 2.67409 -1.39835 -8.66285
2 -2.64955 -1.63577 -8.89877
3 0.0812155 3.37421 -8.79934
2 6.72939 6.87346 0.0802418
1 6.58836 -2.49535 6.71681
3 6.71618 2.23572 -6.74879
2 -2.69676 9.3722 -0.112312
1 1.27583 7.00342 6.69307
2 5.40488 4.61612 -6.58432
2 -9.32079 2.3616 -0.0354731
2 -1.41768 7.24115 6.62498
2 -6.82695 -7.0314 -0.014415
3 -6.66256 -2.3301 6.53383
1 -6.65332 2.25449 -6.65066
3 2.53735 -9.40831 0.00845459
3 -5.41322 -4.74414 6.59496
3 -1.39715 -7.08781 -6.53213
1 9.32149 -2.22116 -0.154955
3 5.16821 -4.69974 6.69919
1 1.20063 -7.26598 -6.64068
3 1.35226 3.76174 8.75915
2 -2.74435 -3.29547 8.84191
3 -4.10365 -0.940832 8.98095
1 4.21801 1.00288 -8.75038
2 -3.93816 0.712983 -8.93645
1 -2.71669 3.09518 -8.74984
3 8.00152 2.92601 -2.25409
2 1.48804 8.54077 2.09254
3 -6.68436 5.43577 -2.1996
2 -7.98839 -3.04083 2.17622
3 -1.24821 -8.57022 -2.09491
1 6.62756 -5.4843 2.32199
3 0.0719589 -1.65667 -8.86343
2 6.78448 3.48975 -4.65572
2 -0.0123393 7.778 4.43367
3 -6.48206 3.86734 -4.49257
2 -6.76543 -3.70221 4.32545
2 -0.18494 -7.91108 -4.35919
3 6.58477 -4.03704 4.58883
1 -1.40482 -0.83825 8.84321
2 -1.55793 0.837078 -8.78088
3 7.85862 1.3335 2.22235
3 2.84805 7.77504 -2.33068
3 -5.28037 6.32895 2.23235
2 -2.66393 -7.71868 2.17386
1 5.26841 -6.24742 -2.09461
3 6.56269 0.653075 4.32822
2 2.67511 6.20984 -4.3664
2 -3.95558 5.51262 4.32459
3 -2.78917 -6.28571 4.43581
2 4.05579 -5.34253 -4.43332
3 5.23806 0.0614373 6.58161
1 2.79429 4.75366 -6.54273
2 -2.65169 4.82273 6.68076
3 -5.29891 0.0528859 -6.70565
2 -2.82591 -4.87715 6.66658
2 2.78738 -4.50707 -6.55277
1 6.70549 5.32055 -2.19044
2 -1.41935 8.64116 2.07616
2 -6.87886 -5.35529 2.13953
2 1.35728 -8.58221 -2.25093
1 7.92249 -3.15943 2.35422
1 1.22368 0.734545 -8.81277
2 6.59672 3.63728 2.24197
2 -6.74253 3.93736 2.10144
3 -6.84046 -3.88837 -2.19102
1 -0.0335581 -7.97012 2.19945
3 6.68097 -3.93642 -2.18126
2 5.13952 3.04595 4.44313
1 0.00269723 6.3003 -4.39836
3 -5.2092 3.25265 4.48368
3 -5.33083 -3.2771 -4.50608
2 -0.0753525 -6.40545 4.40068
1 3.82443 2.28855 6.61315
2 0.0869036 4.79836 -6.60615
3 -3.9095 2.24303 6.64837
2 -3.96322 -2.40511 -6.76073
2 -0.282091 -4.84147 6.66947
1 4.15392 -2.16917 -6.49178
2 5.45184 6.12488 2.11786
1 -2.43517 7.95317 -2.17421
2 -8.04325 1.74194 2.31336
1 -5.51555 -6.2736 -2.2961
2 2.68592 -7.88861 2.23775
2 7.89015 -1.56823 -2.29056
3 4.26289 5.43275 4.33611
3 -2.70595 6.18019 -4.26086
3 -6.56119 0.857892 4.44692
3 -4.27459 -5.30991 -4.50657
2 2.64647 -6.41284 4.54527
2 6.80146 -0.815461 -4.40674
1 2.58956 4.59358 6.50482
3 -2.47104 4.70967 -6.63562
3 -5.21527 -0.277299 6.58121
1 2.46492 -4.7416 6.65224
1 5.39622 0.0433123 -6.42357
1 6.83798 11.579 0.061954
2 -6.42329 11.7326 -0.0796583
2 -13.1815 -0.0493128 0.0528674
2 -6.71381 -11.6026 -0.135113
2 6.62819 -11.6598 0.0973915
1 6.74703 -4.04501 11.1323
2 -0.0859714 7.81545 10.8787
2 -6.63 -4.23194 11.0547
3 -0.14452 -7.84305 -10.8793
3 6.61882 3.80999 -11.0246
3 -6.59527 3.56493 -11.1143
2 12.0957 2.21078 -0.179589
1 11.8958 -0.642 2.09764
2 11.9626 0.693483 -2.33552
2 4.22147 11.609 0.0620446
2 5.47336 10.7514 2.14663
1 6.87728 10.0185 -2.20074
1 -7.9647 9.2971 0.171687
3 -5.3044 10.8473 2.21006
3 -12.1233 -2.2599 -0.0521692
1 -12.0174 -0.751347 2.20726
3 -11.9875 0.823538 -2.30875
2 -4.04824 -11.6107 0.00744012
1 -6.86542 -10.3515 2.13847
1 -5.45117 -10.8665 -2.34413
2 8.04221 -9.25955 0.0150129
2 6.71474 -10.1556 2.33289
2 5.35978 -10.8867 -2.05185
3 5.04652 -1.65296 10.9558
2 3.95365 -4.02239 11.1111
2 -1.29999 5.20657 11.2863
2 1.16281 -5.43619 -10.7954
2 -1.53581 -5.63676 -11.0463
1 4.07031 4.12069 -10.9005
3 10.7118 4.53231 -0.00875877
2 10.4299 -1.59593 4.60568
3 10.7191 1.53183 -4.45023
3 1.23585 11.306 -0.0616247
2 4.15843 9.96513 4.40731
2 6.89315 8.52759 -4.30597
3 -9.5241 6.97053 -0.0834454
1 -3.87763 10.0992 4.46391
1 -6.72883 8.48491 -4.28367
3 -10.8002 -4.51783 -0.188451
2 -10.7073 -1.37929 4.25851
2 -10.4996 1.38255 -4.49211
2 -1.35692 -11.7022 0.0169148
2 -6.78947 -8.65295 4.35071
2 -4.21251 -10.1535 -4.47101
2 9.41308 -6.96988 0.0469089
3 6.69565 -8.56183 4.54739
3 4.08822 -10.0217 -4.23417
2 3.92542 0.66311 11.088
2 1.22091 -4.0881 11.0295
2 -2.68816 2.9385 11.0658
2 2.74115 -2.96862 -10.9326
2 -2.75483 -3.2789 -10.9846
2 1.50419 3.93922 -10.8838
3 9.4505 6.90059 -0.0401063
2 9.13695 -2.47244 6.66558
2 9.30369 2.26043 -6.70481
1 -1.33577 11.6205 -0.218769
3 2.76667 9.28439 6.6129
2 6.79855 6.87723 -6.54651
1 -10.7271 4.67023 -0.107416
1 -6.75854 6.92468 -6.53466
2 -9.47336 -6.78511 -0.207641
3 -9.36903 -2.32982 6.30275
2 -9.27215 2.35716 -6.58109
3 1.37784 -11.6546 -0.0109484
3 -6.74646 -6.93079 6.61474
2 -2.76883 -9.35308 -6.55805
2 10.5689 -4.53655 -0.0100437
2 6.63774 -6.86725 6.72612
1 2.92164 -9.48572 -6.5594
3 2.55671 2.96805 10.9696
3 -1.26156 -3.92271 11.143
1 -4.02377 0.515986 11.1301
3 4.03623 -0.659016 -10.8285
2 -4.07179 -1.01877 -11.0625
2 -1.21486 4.00114 -10.9859
2 8.08895 9.13348 0.168242
2 8.05418 -3.31439 8.93873
3 7.98788 3.01637 -8.82535
3 -3.9716 11.6379 -0.12451
2 1.34061 8.62524 8.73206
3 6.80073 5.4277 -8.85294
2 -11.847 2.22915 0.053311
1 -1.34028 8.53108 8.6903
1 -6.69443 5.46696 -9.0596
2 -8.06008 -9.2958 -0.0826799
1 -8.00791 -3.12493 8.62645
3 -7.99791 3.10514 -8.76488
2 3.90604 -11.5773 -0.00805308
3 -6.51997 -5.53319 8.73096
2 -1.47042 -8.64734 -8.78651
3 11.9322 -2.47287 -0.101786
1 6.8697 -5.48298 8.71348
2 1.33018 -8.57942 -8.842
2 1.32798 5.32854 10.7691
1 -4.10631 -4.03395 10.9954
3 -5.50386 -1.66144 10.9762
3 5.41092 1.41594 -11.0056
3 -5.15647 1.40568 -11.1131
2 -4.07345 3.8065 -11.0982
3 10.5839 2.85427 -2.28136
3 2.90803 10.7679 2.20716
2 -8.18542 7.58317 -2.17144
2 -10.5628 -3.28617 2.04498
1 -2.7168 -10.793 -2.24863
2 8.14859 -7.80073 2.23892
2 2.50548 -1.78581 10.7381
1 -0.0503762 -3.12955 -11.0518
2 9.45613 3.72663 -4.35757
2 1.46498 10.1679 4.43682
2 -8.0077 5.96632 -4.55418
3 -9.28755 -3.89602 4.30453
2 -1.48374 -10.039 -4.37296
3 8.02813 -6.38608 4.46811
2 -0.178064 -1.68878 11.0821
2 -1.22627 -0.815435 -10.9666
2 8.018 4.51838 -6.68393
3 0.0941952 9.31711 6.50789
1 -7.83914 4.58045 -6.76387
2 -7.881 -4.56879 6.6911
3 8.09435 -4.71114 6.50366
2 -2.77608 -1.78611 11.0877
1 -2.59677 1.50977 -11.1296
1 10.6569 1.51452 1.97685
2 4.21941 10.0296 -2.24443
2 -6.6123 8.63387 2.24851
3 -10.4515 -1.49895 -2.43758
2 -4.11092 -10.129 2.40762
1 9.27631 0.750518 4.53001
2 3.99536 8.54005 -4.54792
1 -5.27915 7.76865 4.48072
2 -9.15704 -0.768709 -4.54934
2 -4.11339 -8.70767 4.53695
2 5.35756 -7.74747 -4.32031
1 7.97937 0.0319605 6.71448
1 4.04705 7.01117 -6.74967
3 -4.04897 7.15319 6.55851
1 -8.1079 -0.0369008 -6.76613
2 -4.18494 -7.18706 6.68377
2 4.0871 -7.18528 -6.54653
3 6.55422 -1.05183 8.88361
2 4.07934 5.40956 -8.86313
1 -2.63301 6.2217 8.97011
1 -6.71746 0.817709 -8.98561
3 -4.06686 -5.53687 8.88495
2 2.54104 -6.2912 -8.69642
3 9.32353 5.37232 -2.14963
1 0.0713349 10.9659 2.32759
2 -9.44867 5.46301 -2.12951
3 -9.35398 -5.44111 2.17612
2 -0.0758672 -10.9294 -2.06346
1 9.33929 -5.46522 2.30477
3 1.13733 0.702886 11.0743
1 1.39621 -0.887824 -11.0091
2 8.14469 6.16139 -4.33719
3 -1.24272 10.1337 4.22562
1 -9.26204 3.67902 -4.44609
2 -8.04857 -6.07641 4.39982
2 1.40172 -10.2329 -4.24977
3 9.27551 -3.9617 4.465
3 -1.38597 0.753846 10.8815
3 -0.0861465 1.63809 -11.0594
1 9.39788 3.7213 2.05509
3 1.3012 9.99384 -2.40708
2 -8.18348 6.32472 2.01118
3 -9.37434 -3.93378 -2.25572
2 -1.40053 -10.0858 2.26337
1 8.03441 -6.28241 -2.31896
1 7.89108 2.95525 4.46304
3 1.36376 8.64496 -4.32143
2 -6.58833 5.44469 4.41083
3 -7.97788 -3.2538 -4.41966
2 -1.45967 -8.55423 4.5565
3 6.5989 -5.51699 -4.45508
2 6.66039 2.16855 6.70963
1 1.3353 7.25193 -6.61914
1 -5.30361 4.58288 6.64996
2 -6.67725 -2.23974 -6.55889
1 -1.45264 -7.34192 6.71113
2 5.47277 -4.5226 -6.42347
2 5.38538 1.37063 8.80709
3 1.2783 5.59425 -8.79011
3 -3.99032 3.93719 8.9524
3 -1.42696 -5.69277 8.72751
2 4.15649 -3.7003 -8.73638
2 8.19778 7.70105 -2.06965
2 -2.70982 10.9345 1.99743
2 -10.7128 3.10491 -2.18495
1 -8.15584 -7.82405 2.23796
3 2.72455 -11.0106 -2.32431
1 10.6836 -3.09061 2.40806
3 0.0016337 3.00828 11.0481
1 2.74515 1.66218 -10.842
1 7.98172 6.13457 2.12297
2 -1.20602 10.1575 -2.34218
2 -9.64307 3.92328 2.16466
2 -8.03593 -6.22566 -2.23832
3 1.34534 -10.3262 2.36818
1 9.2262 -3.87268 -2.18562
2 6.92844 5.33699 4.51108
1 -1.49321 8.70849 -4.42308
2 -7.88615 3.3581 4.31853
3 -6.82551 -5.72959 -4.61741
1 1.24501 -8.73665 4.56693
2 8.07688 -3.23261 -4.41538
2 5.37059 4.70768 6.62103
2 -1.45164 7.23989 -6.60899
2 -6.55401 2.3825 6.38062
3 -5.25648 -4.89682 -6.32995
2 1.32334 -7.26135 6.8597
1 4.00199 3.74998 8.88678
1 -1.30878 5.51578 -8.79897
1 -5.43379 1.42132 8.7355
2 -4.1704 -4.01305 -8.69956
2 1.06056 -5.34591 8.84589
2 5.47902 -1.4348 -8.74638
2 6.79788 8.55642 2.33739
2 -4.0009 10.0701 -2.2658
3 -10.6488 1.53111 2.28323
2 3.90625 -10.2429 2.47084
3 10.6913 -1.79614 -2.42458
2 -4.01297 8.5597 -4.27771
2 -9.19565 0.812653 4.40892
3 -5.51491 -7.75856 -4.56353
3 3.94531 -8.52601 4.52449
3 9.45137 -0.782228 -4.394
3 4.00279 6.95955 6.65111
2 -4.17726 6.9249 -6.3639
3 -7.87343 -0.0175265 6.38979
3 -4.09049 -7.16931 -6.58367
2 4.07026 -7.2007 6.75824
3 8.10303 -0.0441456 -6.41557
2 2.57422 6.17567 8.60461
3 -4.12732 5.35192 -8.843
1 -6.62267 -0.849654 8.6717
3 -2.75859 -6.2568 -8.81093
2 3.7749 -5.60251 8.75584
2 16.1565 -0.0445212 -0.0256085
1 8.09389 13.9817 0.005807
1 -7.89008 13.7451 -0.064794
1 -16.2549 0.203465 0.100913
1 -8.2672 -14.0108 -0.16402
1 7.95959 -14.0634 0.111611
1 8.33639 -4.70274 13.3247
3 -0.122786 9.32819 13.1961
1 -7.86077 -4.88184 13.1053
1 -0.0888541 -9.48835 -13.184
1 7.97184 4.52257 -13.0841
2 -8.06568 4.63534 -13.2682
3 14.8342 2.33904 -0.0648473
2 14.4812 -0.871151 2.26316
2 14.7315 0.809445 -2.06342
2 5.39769 14.0019 -0.178584
3 6.67967 13.3679 2.08882
3 8.0365 12.3325 -2.11623
1 -9.28913 11.5382 0.133641
2 -6.47783 13.2539 2.25767
2 -7.85153 12.2177 -2.15791
2 -14.8336 -2.10543 0.165128
3 -14.6767 -0.620257 2.14345
2 -14.6523 0.815872 -1.99601
1 -5.37809 -13.9688 -0.113931
2 -8.28634 -12.518 1.94961
1 -7.00332 -13.1942 -2.33305
1 9.32081 -11.6624 -0.162213
2 7.73546 -12.4437 2.4175
2 6.82472 -13.2618 -2.1927
2 6.56073 -2.43018 13.2563
2 5.50027 -4.74808 13.1516
1 -1.35124 6.883 13.3656
1 1.21143 -7.15865 -13.3816
1 -1.43315 -7.10096 -13.2113
1 5.33203 4.71003 -13.2728
3 13.3668 4.47585 -0.0609912
3 13.1248 -1.60849 4.33582
1 13.4012 1.55683 -4.21675
1 5.51274 12.5048 4.35136
1 8.02126 11.0638 -4.40312
2 -10.7438 9.14861 2.56382e-05
1 -5.33042 12.3571 4.35938
2 -8.07992 10.6812 -4.51553
2 -13.3762 -4.51295 -0.235475
2 -13.3448 -1.29304 4.3005
2 -13.3066 1.37579 -4.32493
3 -2.69291 -13.8005 -0.0446353
2 -8.17312 -10.9226 4.30892
1 -5.44073 -12.408 -4.5462
3 10.6076 -9.32627 -0.136811
2 8.00431 -10.9224 4.44757
2 5.39923 -12.4267 -4.46422
3 5.27559 -0.227032 13.199
1 2.76579 -4.85242 13.2805
1 2.76932 -4.63778 -13.2294
3 -2.60508 -4.74526 -13.1944
2 2.78713 4.8084 -13.069
1 12.0763 6.77719 0.129413
1 11.9246 -2.40961 6.62547
2 12.0574 2.18972 -6.51504
3 4.1298 11.5601 6.47231
2 8.17768 9.30129 -6.68749
2 -3.82903 11.5887 6.77576
1 -8.19416 9.27686 -6.66377
3 -12.1871 -7.05632 0.0397056
1 -12.0061 -2.25812 6.66397
2 -12.0945 2.31461 -6.6301
2 -0.0589839 -13.8954 -0.134184
3 -7.98649 -9.43582 6.57911
2 12.1526 -6.97223 -0.0955897
3 4.03233 -11.7936 -6.44249
1 3.87668 2.24696 13.1038
3 0.122457 -4.76685 13.2042
1 -3.87782 2.39755 13.3276
1 4.16008 -2.32 -13.2368
2 -4.04 -2.52136 -13.3977
2 0.0807651 4.80579 -13.2856
1 10.7441 9.31387 -0.0355885
3 10.6791 -3.34615 8.75243
2 10.6129 3.21453 -8.53568
2 -2.8289 13.947 -0.122386
3 2.67169 10.8754 8.72831
2 8.04413 7.62118 -8.87144
1 -13.4674 4.79789 0.0356773
3 -2.62804 10.8647 8.70762
2 -8.21471 7.69163 -8.86203
2 -10.8549 -9.33979 -0.0966027
3 -10.6551 -3.26649 8.84879
3 -10.7874 3.17542 -8.76513
1 2.60735 -14.0071 0.0660619
1 -7.95792 -7.7767 8.66654
2 -2.7819 -10.8882 -8.78247
2 13.4957 -4.76248 0.067163
1 8.07875 -7.92332 8.78111
3 2.73535 -10.8462 -8.71031
2 2.66021 4.68063 13.2263
1 -2.62819 -4.82794 13.2494
2 -5.30972 -0.14979 13.2918
2 5.43499 -0.0747626 -13.0287
3 -5.27014 -0.131017 -13.1453
2 -2.66782 4.71713 -13.3025
2 9.37093 11.7031 0.0281925
2 9.67285 -3.98132 11.0893
2 -5.38194 13.9874 0.0501289
3 1.2952 10.1872 10.7309
3 7.80111 6.07698 -11.0431
2 -14.7367 2.37795 0.0203636
2 -1.36578 10.1178 10.9707
1 -9.73465 -11.7799 -0.00426723
2 -9.29739 -4.13906 10.916
3 -9.25124 3.86055 -10.9551
2 5.27304 -14.2601 0.0642111
3 -8.03309 -6.4404 11.0655
3 -1.5033 -10.2113 -10.9916
2 14.7469 -2.25538 -0.148986
3 8.11429 -6.41937 11.1945
2 1.1809 -10.1988 -10.9095
2 1.37472 6.9838 13.2842
2 -5.29754 -5.07564 13.2642
2 -6.60009 -2.71646 13.0834
2 6.57337 2.36218 -13.3361
1 -6.5738 2.19338 -13.153
1 -5.29399 4.73111 -13.2218
1 4.06256 13.1566 2.04839
2 -9.43039 10.1374 -2.16769
2 -13.3623 -2.85197 2.26512
2 -3.93099 -13.2347 -2.29659
2 9.47907 -10.1288 2.06021
1 3.93371 -2.51427 13.2259
3 0.11227 -4.71594 -13.1698
2 12.0798 3.72651 -4.29326
1 2.82831 12.4037 4.31135
2 -9.49587 8.32367 -4.19414
2 -11.9725 -3.71508 4.46647
3 -2.69571 -12.4448 -4.36053
2 9.41009 -8.53577 4.37707
2 1.34861 -2.4401 13.1198
2 -1.32206 -2.46459 -13.1546
3 1.41464 11.6862 6.50838
1 -9.52851 6.94818 -6.55433
2 -10.4563 -4.71159 6.61505
2 -1.3774 -11.5619 -6.54059
2 9.1765 -7.12271 6.54635
1 -1.27979 -2.49791 13.3004
2 -2.61812 -0.0626031 -13.3446
3 9.27115 5.36402 -8.6486
2 0.0386902 10.9166 8.70802
2 -9.41506 5.55332 -8.78269
3 -9.27086 -5.53439 8.73153
1 -0.0613859 -11.0016 -8.82677
2 -4.04724 -2.46452 13.3542
3 -3.96178 2.21707 -13.1624
2 13.3715 1.7181 2.17709
1 5.26324 12.4741 -2.24798
1 -7.98687 10.8951 2.38802
2 -13.3266 -1.61569 -2.10516
3 -5.47289 -12.5984 2.1674
1 7.98949 -10.733 -2.16577
1 11.9217 0.765596 4.61406
1 5.43665 10.9559 -4.42408
3 -6.55246 10.1126 4.5183
2 -11.8381 -0.940193 -4.41317
2 -5.50664 -11.1398 4.42422
2 6.61191 -9.87102 -4.55394
3 10.5812 -0.161336 6.67511
1 5.43153 9.23493 -6.70844
1 -5.18374 9.3325 6.71549
3 -10.7979 -0.0804746 -6.65268
3 -5.32215 -9.47792 6.63484
1 9.43373 -0.857364 8.8071
2 5.26884 7.61699 -8.74223
2 -4.01582 8.53949 8.85917
2 -9.4813 0.812869 -8.84086
2 -5.26068 -7.94189 8.81796
1 4.07337 -8.44221 -8.77885
2 7.8444 -1.80697 10.9994
3 5.44195 6.29323 -11.0272
2 -2.54188 7.56709 11.0393
3 -8.04084 1.44837 -11.041
3 -5.32425 -6.47367 10.9709
2 2.51761 -7.56476 -11.0605
2 12.117 5.31713 -2.17176
2 1.45166 13.1217 2.13698
3 -10.762 7.77405 -2.11835
1 -12.0168 -5.32974 2.10146
2 -1.32217 -13.2982 -2.28779
3 10.6732 -7.76558 2.14497
1 1.41923 -2.3593 -13.3715
2 10.7122 6.10238 -4.30604
2 0.0168482 12.4257 4.39591
2 -10.7319 6.09078 -4.38835
1 -10.6083 -6.23961 4.30021
2 0.000979528 -12.5341 -4.39852
2 10.6843 -6.22268 4.30166
3 0.201045 -0.149731 13.1428
1 -0.0269288 -0.0739857 -13.2391
3 9.41303 6.97835 -6.59289
3 -1.21225 11.6682 6.54879
2 -10.6366 4.66414 -6.63719
2 -9.36953 -7.08235 6.61982
2 1.50419 -11.706 -6.50916
3 10.6643 -4.78286 6.58957
3 -2.67589 -0.227635 13.3786
1 -1.22456 2.53203 -13.1742
2 12.0471 3.85634 2.11624
2 2.66044 12.236 -2.07956
3 -9.3928 8.52362 2.26249
3 -12.0146 -3.90407 -2.24221
2 -2.85954 -12.2725 2.22479
1 9.27004 -8.6198 -2.21874
1 10.662 3.10108 4.38883
3 2.81485 10.8989 -4.39521
2 -8.09071 7.7236 4.38173
2 -2.82646 -10.9895 4.71663
3 8.06592 -7.66039 -4.45441
3 9.36172 2.28953 6.67816
2 2.78418 9.55318 -6.64436
2 -6.71957 6.87792 6.62101
2 -9.33172 -2.44048 -6.72234
3 -2.75081 -9.65189 6.69052
1 6.50343 -7.29224 -6.54873
1 7.88032 1.47166 8.89284
1 2.70726 7.71915 -9.14584
1 -5.33417 6.25111 8.89288
3 -8.1081 -1.39267 -8.81544
3 -2.71844 -8.00165 8.8026
2 5.35858 -6.21165 -8.71284
2 6.69723 0.522773 11.0387
2 -4.07034 5.3988 11.2295
2 -6.79324 -0.901326 -10.9942
2 -2.77668 -6.44823 10.896
2 3.91834 -5.32376 -10.8526
2 10.7601 7.63334 -2.09843
1 -1.24152 13.2836 1.66539
1 -12.1768 5.42201 -2.35755
2 -10.6958 -7.67612 1.99552
2 1.31107 -13.1225 -2.18067
3 11.9756 -5.56062 2.0862
2 1.38774 2.14753 13.1795
2 2.81779 -0.124585 -13.0673
1 9.34985 8.53013 -4.35526
2 -2.57604 12.2625 4.36601
2 -9.47319 -8.62389 4.2663
2 2.74149 -12.5185 -4.32099
2 11.9959 -4.06109 4.53634
1 -1.21531 1.92886 13.4301
2 1.30765 2.40064 -13.1128
2 10.7357 6.08238 2.17634
3 0.00739422 12.5123 -2.34636
1 -10.7891 6.18081 2.25765
1 -10.8107 -6.10763 -2.27702
2 -0.0611225 -12.4219 2.12988
3 10.6867 -6.25994 -2.06372
2 9.54155 5.40692 4.48214
3 0.0665726 10.9687 -4.53711
3 -9.38104 5.59492 4.48275
2 -9.37799 -5.48245 -4.38746
2 -0.0589211 -10.8936 4.46898
3 9.29538 -5.46701 -4.32888
2 8.27731 4.58472 6.67036
3 -0.0207832 9.36269 -6.65342
2 -8.15466 4.55928 6.47466
2 -7.84866 -4.63522 -6.60626
2 -0.156921 -9.52638 6.77929
3 8.11733 -4.87463 -6.52164
1 6.77262 3.80959 8.84376
2 -0.0843624 7.79964 -8.79471
2 -6.53006 3.78427 8.71263
2 -6.69757 -3.66888 -8.76548
2 -0.0947219 -7.97559 8.82223
2 6.74153 -3.91852 -8.72831
3 5.32272 3.06204 10.9859
2 0.274375 6.19843 -11.1716
1 -5.35398 3.13502 11.1971
2 -5.40965 -3.09468 -11.1977
1 -0.236859 -6.56898 11.0511
2 5.34002 -3.12601 -11.0431
2 9.47932 10.1577 -1.92412
3 -3.87779 13.2791 2.14147
2 -13.1793 3.20628 -2.03681
3 -9.54605 -10.17 2.07609
2 4.01779 -13.2643 -2.17152
2 13.1564 -3.29878 2.15028
2 0.105329 4.56199 13.3199
1 4.03164 2.36964 -13.055
3 9.52127 8.42156 2.25137
2 -2.72435 12.5571 -2.31518
3 -12.1928 3.98715 2.15308
3 -9.44954 -8.62344 -2.23401
2 2.56213 -12.6131 2.24826
1 12.0702 -4.09485 -2.07941
1 8.10228 7.79028 4.43705
1 -10.682 3.07959 4.35408
1 -8.0448 -7.83862 -4.36297
2 2.74754 -10.8751 4.60645
1 6.67295 6.75251 6.61711
2 -2.80386 9.47988 -6.40018
2 -9.45809 2.27783 6.65003
2 -6.69462 -7.11013 -6.70637
1 2.63173 -9.47881 6.8674
1 9.2882 -2.55294 -6.44596
3 5.23647 6.25033 8.78156
2 -2.73925 7.67753 -8.95108
2 -7.85878 1.61389 8.52016
2 -5.46413 -6.1933 -8.59415
2 2.55492 -7.92661 8.95617
1 7.76447 -1.54794 -8.60225
1 3.91845 5.33212 11.0495
2 -2.7164 6.10951 -11.0644
2 -6.59108 0.868161 11.1719
2 -4.1207 -5.48559 -10.9574
2 2.42719 -6.42016 11.2485
3 6.64373 -0.750723 -10.8373
3 8.1211 10.8668 2.24327
3 -5.20987 12.4233 -2.26797
2 -13.2878 1.55133 2.28151
2 -8.24673 -11.0272 -2.26609
3 5.25386 -12.4739 2.35682
2 13.4123 -1.52038 -2.15968
2 6.88745 9.95284 4.3276
2 -5.28482 10.7899 -4.37846
3 -11.9211 0.872519 4.44391
3 -6.83747 -10.205 -4.59244
1 5.31459 -10.8461 4.4665
2 12.055 -0.830417 -4.40272
1 5.33303 9.09176 6.60524
1 -5.45537 9.31741 -6.50217
3 -10.4717 -0.0772949 6.51907
2 -5.4388 -9.51874 -6.49416
1 5.54192 -9.45292 6.63342
2 10.6514 -0.15355 -6.55189
2 4.01854 8.48996 8.71355
2 -5.47669 7.6862 -8.6315
3 -9.37413 -0.725643 8.68534
3 5.33109 -7.80357 8.73709
1 9.31951 0.637501 -8.78197
2 2.60052 7.7221 10.9155
2 -5.44189 6.14645 -10.9706
2 -7.93996 -1.91248 10.8965
3 -2.85838 -7.86062 -10.9794
2 5.50512 -6.40617 10.9244
2 7.82384 1.57851 -11.1898
2 18.9321 -0.0788271 -0.197676
3 9.49094 16.2576 -0.0399226
3 -9.50626 16.2835 -0.131265
2 -18.8337 0.182282 0.142676
3 -9.71653 -16.3575 0.0941585
1 9.68106 -16.3878 -0.0936124
1 9.61403 -5.41242 15.6324
1 -0.0200366 10.7822 15.3582
3 -9.23859 -5.46067 15.3013
2 -0.0247431 -11.1116 -15.222
1 9.52163 5.32393 -15.172
1 -9.42348 5.4854 -15.3066
1 17.5191 2.14026 -0.158042
2 17.2766 -0.978337 2.11344
2 7.05267 16.3479 -0.0867861
2 8.27429 15.4668 2.09568
2 9.63626 14.9677 -2.39577
1 -10.5277 13.893 0.126816
1 -7.87319 15.5952 2.3159
2 -9.33484 14.9222 -2.10791
2 -17.4844 -2.01894 0.133931
3 -17.5884 -0.652075 2.34383
3 -17.5266 0.936322 -2.17648
3 -6.7519 -16.4471 -0.211908
3 -9.69911 -14.6718 1.99856
2 -8.22842 -15.4192 -2.14423
3 10.7974 -14.0246 0.0371505
1 9.33696 -14.8239 2.2045
1 8.02981 -15.6863 -2.11818
1 8.04362 -3.08594 15.3943
2 6.94467 -5.26812 15.5774
1 -1.48707 8.41348 15.5626
3 -1.20065 -8.49761 -15.4471
1 6.62695 5.37142 -15.4621
3 16.2454 4.5494 -0.126478
2 15.8191 -1.67409 4.44466
3 16.0082 1.5281 -4.33971
1 4.32924 16.2743 -0.0436874
2 6.96119 14.6332 4.34427
1 9.39957 13.1589 -4.2283
2 -11.9835 11.6461 0.0261507
1 -6.64423 14.7992 4.43983
2 -9.1912 13.2329 -4.41934
2 -16.3254 -4.54885 -0.269005
1 -15.9599 -1.43979 4.42751
1 -16.057 1.58181 -4.37004
1 -4.01509 -16.1693 -0.270657
2 -9.56696 -13.2812 4.06907
3 -6.67099 -14.7776 -4.39729
2 12.0116 -11.7875 0.191493
2 9.30493 -13.2556 4.50753
3 6.79678 -14.998 -4.16277
3 6.8143 -0.852707 15.5857
1 4.2768 -5.54418 15.4804
3 -2.73766 6.08802 15.6391
1 2.68374 -6.14788 -15.4344
1 4.14775 5.24955 -15.6951
2 14.6861 6.83628 0.0054653
1 14.4809 -2.13576 6.58009
1 14.6177 2.14373 -6.6296
2 1.25012 16.0583 -0.211011
1 5.42842 13.8472 6.75896
3 -13.5126 9.26826 -0.0600177
2 -5.33514 13.8542 6.74413
2 -9.35522 11.5031 -6.66703
2 -14.7186 -6.92126 -0.133693
1 -14.7194 2.44828 -6.49343
3 -1.34178 -16.1688 -0.135753
2 -9.47156 -11.6724 6.48076
3 -5.50941 -13.7882 -6.76181
2 13.3528 -9.19482 -0.0489689
2 9.43332 -11.5842 6.70989
2 5.26995 1.347 15.4008
1 1.48125 -5.43315 15.4998
2 -3.82905 3.69852 15.3014
3 4.01773 -3.86832 -15.4955
3 -4.02541 -3.98952 -15.6208
1 1.50983 5.60478 -15.4142
3 13.4027 9.18517 -0.0264391
1 13.3282 -3.1833 8.78987
3 13.1818 3.1642 -8.7284
3 -1.19838 16.3662 -0.324984
1 4.00945 13.0209 8.80354
2 9.28036 10.1039 -8.76708
2 -14.8317 7.08035 -0.0702361
3 -3.97366 13.2561 8.79825
3 -9.42803 9.99626 -8.95789
2 -13.4497 -9.44668 -0.0841346
2 -13.2388 -3.31886 9.03142
2 -13.4344 3.2471 -8.94107
3 1.38431 -16.469 -0.0504602
2 -9.48894 -10.1702 8.68882
3 -4.12883 -13.087 -8.96939
1 14.8187 -6.97546 0.00795176
3 9.44143 -10.1443 8.83924
3 4.29485 -13.2499 -8.90168
2 4.00571 3.8667 15.2938
3 -1.22187 -5.5474 15.493
1 -5.46948 1.53243 15.4466
3 5.38232 -1.47158 -15.3597
3 -5.35429 -1.66211 -15.592
1 -1.13326 5.40334 -15.4915
3 12.147 11.7193 -0.11437
1 12.0356 -3.99504 11.1129
1 11.4576 3.78126 -10.7525
1 -4.07543 16.6245 -0.252558
3 2.55568 12.2747 10.8639
3 9.3363 8.45245 -10.885
1 -16.1166 4.67974 0.111228
2 -2.64221 12.5095 10.9706
3 -9.51957 8.54312 -10.9192
2 -11.9882 -3.92399 11.2876
2 -11.8909 3.89108 -10.981
2 4.13479 -16.651 -0.0615703
2 -9.52145 -8.61399 11.1711
1 -2.68655 -12.3811 -11.0438
2 16.1679 -4.62037 0.0658097
1 9.39369 -8.70709 11.0317
2 2.71825 -12.554 -10.7649
3 2.57613 6.2337 15.3982
1 -4.03264 -5.39001 15.5326
1 -6.81217 -0.96082 15.5821
3 6.60771 0.564911 -15.3399
1 -6.66191 0.6106 -15.364
2 -4.09679 5.53067 -15.3858
3 10.7718 14.0672 -0.0247844
1 11.0308 -4.77072 13.3616
2 10.5019 4.49789 -12.859
2 -6.82301 16.4486 0.068138
2 9.24641 6.68456 -13.0489
1 -17.4531 2.36985 0.0480467
3 -1.36264 11.5298 13.1734
3 -9.4395 7.02702 -13.1748
2 -10.9726 -14.0606 -0.0543064
2 -10.6887 -4.83444 13.3647
2 6.76685 -16.3169 0.0956264
2 -9.24722 -7.00524 13.195
2 -1.39076 -11.6706 -13.1604
3 17.551 -2.24432 -0.130948
2 9.53003 -6.89503 13.2608
3 1.44333 -11.5856 -12.952
3 1.21687 8.47924 15.4378
1 -6.59241 -5.49883 15.646
2 -8.00821 -3.21479 15.3222
3 7.98767 3.07267 -15.2918
1 -7.99683 3.03582 -15.4396
2 -6.71504 5.47483 -15.6235
1 16.2161 2.95924 -2.31977
1 5.52954 15.4324 2.19134
2 -10.6811 12.6776 -2.13317
2 -16.0564 -2.96821 2.28952
2 -5.5418 -15.5791 -2.35701
3 10.34 -12.4981 2.31322
2 0.119931 -6.24088 -15.3902
2 14.6181 3.75952 -4.47589
1 4.03081 14.8422 4.41621
3 -10.7624 10.9812 -4.30649
2 -14.7358 -3.65739 4.4049
3 -3.98689 -14.7011 -4.46716
2 10.7991 -10.7841 4.37756
1 2.88552 -3.26219 15.4867
1 -1.3387 -4.00341 -15.5351
1 13.2756 4.86678 -6.56462
3 2.84814 14.0707 6.65192
1 -10.7721 9.28201 -6.58483
1 -13.4322 -4.507 6.47074
1 -2.92322 -13.7197 -6.66436
1 10.6608 -9.31318 6.52556
2 -0.0321455 -3.20694 15.3277
1 -2.59407 -1.60162 -15.5719
1 11.957 5.58957 -8.64945
2 1.47417 13.2803 8.77849
3 -10.8724 7.6439 -8.75224
2 -12.0702 -5.53018 8.76088
2 -1.47339 -13.1593 -8.75603
1 10.8183 -7.78529 8.79883
2 -2.59266 -3.15597 15.4901
1 -3.98323 0.704894 -15.4508
3 10.6407 6.2612 -10.9204
3 0.0692035 12.6304 10.8552
3 -10.7545 6.13082 -10.8648
3 -10.6983 -6.33991 10.9569
2 -0.0603428 -12.399 -11.023
2 10.8669 -6.52686 11.0504
2 -5.18966 -3.24047 15.591
1 -5.34547 3.05247 -15.4615
2 15.8843 1.38734 2.12376
1 6.75237 14.8061 -2.24027
3 -9.16301 13.348 2.21387
2 -16.0234 -1.35835 -1.99306
1 -6.84206 -14.9069 2.13543
1 9.54377 -13.3526 -2.11949
2 14.4716 0.613592 4.39145
1 6.76013 13.4442 -4.62097
2 -7.87673 12.3697 4.35732
2 -14.5877 -0.806512 -4.107
1 -6.84529 -13.2948 4.17746
1 8.16031 -12.427 -4.40706
2 6.84394 11.4937 -6.51109
3 -6.48972 11.6427 6.58158
1 -13.487 0.0619777 -6.5357
1 -6.87671 -11.7536 6.40257
2 6.70701 -11.4969 -6.47465
3 12.1146 -0.904475 9.00373
3 6.70491 9.90168 -8.79321
2 -5.28585 11.0554 8.83567
2 -12.0343 0.862334 -8.9593
2 -6.76436 -10.0599 8.76778