2587
 Atoms. Timestep: 6000
2 1.2785 -0.441839 -0.131751
3 3.54873 -0.322168 0.203276
2 1.05807 2.37121 -0.461503
2 -1.40579 2.02656 -0.550958
1 1.93334 -1.53834 4.39421
3 -0.163568 1.27092 1.52386
2 -1.27469 -0.639114 0.129538
2 1.41906 -3.56172 -1.98177
3 2.51268 0.868833 -1.87715
2 -1.23307 0.925247 -2.95818
2 2.76046 4.67823 -0.0640753
1 -2.48717 4.57157 -0.544171
3 -5.25677 0.128178 -0.13022
1 -2.50376 -4.71581 -0.0992304
3 0.00765795 3.02515 4.09121
2 -2.33612 -1.53786 4.02043
1 -0.565698 -2.47007 -4.43527
2 -4.02216 0.908695 -2.79711
2 3.98479 2.18815 -0.231783
2 3.36501 -1.58519 2.30151
2 4.92407 0.345703 -1.83665
1 0.22041 4.71408 -0.450803
2 1.31496 3.70522 1.85725
2 2.48901 3.37192 -2.31259
1 -4.01749 2.38857 -0.478964
2 -1.43854 3.74825 1.95039
1 -5.10799 3.34466 -2.59452
2 -3.7526 -2.15923 -0.307415
2 -3.64567 -0.715007 1.99862
3 -6.63084 1.04892 -2.22714
2 0.366732 -2.75118 0.553425
2 -2.09786 -2.71492 1.62257
2 0.108955 -5.91061 -2.17379
3 3.0154 -3.202 0.238799
3 4.41158 -3.99371 2.63011
1 1.24664 0.744231 3.84804
2 -0.0463012 -1.18917 2.67691
1 -1.33281 0.737784 3.86736
1 0.436305 -0.773558 -2.5645
2 -2.63165 -1.37775 -2.36338
1 0.89528 2.12144 -3.66561
2 2.58965 1.39187 1.88489
1 -1.02425 3.41383 -2.50186
1 -2.63549 1.39409 1.60291
1 -1.02088 -3.27824 -1.77861
3 3.00193 -1.48649 -1.98632
2 7.07543 -0.343603 -0.0187574
1 4.09104 7.02876 -0.248852
2 -3.8345 6.9506 -0.238782
1 -7.62844 0.0153904 -0.141514
1 -3.85847 -6.87407 -0.299767
2 2.57649 -7.57261 0.057122
2 4.12114 -2.3736 6.5348
1 0.152955 4.51902 6.28455
2 -3.70473 -2.15344 6.52969
3 0.107512 -4.27718 -6.34746
2 2.42886 3.09235 -6.91908
2 -5.38286 1.58686 -4.88962
2 5.2746 3.41281 -2.54436
3 5.99928 -1.32909 2.12462
3 2.70116 6.1154 1.94707
3 3.84248 5.5049 -2.63435
2 -5.31837 4.73568 -0.3402
1 -2.55682 6.16873 1.977
2 -4.12371 5.70001 -2.462
2 -6.34523 -2.22312 -0.0205059
1 -6.42132 -0.680034 2.20613
2 -7.82741 1.68538 -4.35864
1 -0.876991 -6.86455 -0.115365
2 -3.68324 -5.34718 2.12677
2 -2.77135 -6.19577 -2.49307
1 5.19381 -4.48511 0.0711794
2 4.62566 -6.42361 1.53351
1 2.81456 0.0958247 6.39307
2 1.69834 -2.42779 6.68137
2 -1.25422 2.43759 6.4561
1 1.4742 -1.90086 -6.07084
1 -2.89831 -3.1965 -5.3535
2 -0.739209 2.38269 -6.68016
1 5.38186 4.67151 -0.242432
1 4.97534 -1.75583 4.36517
3 3.76127 1.77528 -3.79329
2 -1.06106 6.82043 -0.387869
1 1.38027 5.24866 4.05526
1 2.62813 3.98635 -4.62239
1 -6.6576 2.45277 0.0314368
2 -1.26289 5.37099 4.17276
3 -5.0052 -4.52998 0.133636
2 2.75799 -6.08464 -2.03672
3 -3.39071 -3.769 4.03922
1 -1.25788 -5.06783 -4.27775
1 5.22546 -2.02651 -0.66697
1 2.83274 -4.01017 4.82175
1 2.65727 -4.38211 -6.63607
2 1.46578 2.34542 6.3121
1 0.215505 -0.0780083 6.2552
2 -2.18094 -0.0560301 6.10216
2 1.40345 0.745301 -6.81632
2 -3.89308 -0.790692 -4.8367
2 -1.73228 3.20809 -8.89563
2 0.0772603 6.33185 1.97154
1 -6.89191 3.9412 -4.47553
3 -4.8901 -2.96246 1.95972
2 1.51373 -5.24715 -4.31451
2 7.9156 -3.04518 1.97978
2 -2.6593 1.85803 -4.85279
2 -3.95114 3.55953 2.13795
2 -5.21559 -1.43531 -2.35599
2 -0.679612 -5.21961 1.77199
3 3.94936 -3.7069 -2.14024
1 3.91642 0.760358 4.17993
2 -2.73656 3.12158 4.31686
2 -5.31978 -3.08021 -4.59245
2 -0.828316 -3.68871 3.78219
2 4.08486 3.88399 2.14801
3 -1.48101 5.88957 -2.60246
2 -5.31575 1.48833 1.9898
3 -3.66166 -3.82971 -2.3915
2 1.54949 -5.31096 0.318588
3 2.67625 3.03307 4.09161
3 -2.93638 4.20479 -4.25738
1 -3.93979 0.674508 4.40698
2 1.68199 -3.56884 2.55717
3 2.39373 -0.14086 -4.33664
2 10.5124 0.0423656 0.0250013
1 5.45477 9.12307 -0.179531
3 -5.29519 9.34635 -0.056507
2 -10.2918 0.239682 0.0323059
2 -5.12942 -9.08749 -0.178885
1 5.08904 -8.91973 0.327197
2 5.32034 -3.126 8.64359
2 0.421773 7.47419 8.6976
2 -5.29166 -2.86414 8.48852
3 -0.0979967 -6.08386 -8.87685
1 5.47259 -0.931266 -8.98231
2 -6.19938 2.44627 -7.49633
2 6.81573 2.25996 -0.609098
2 8.97722 -0.680464 1.95648
1 8.81839 0.959403 -1.52447
1 2.69007 9.15425 -0.213686
1 4.04563 8.42251 2.14058
2 5.36311 7.69638 -2.47022
2 -6.57285 7.06594 -0.213801
1 -4.01954 8.55012 2.15397
1 -5.24917 8.10198 -2.2559
3 -8.9323 -2.31186 0.0724703
3 -9.06532 0.988951 -1.99538
3 -2.19693 -9.14063 0.135535
1 -5.16395 -7.56787 2.14094
2 6.55608 -6.81897 -0.256275
2 4.40147 -8.80284 3.0607
1 3.94914 -8.37072 -2.08696
2 -1.2874 4.3371 8.66042
2 0.87155 -3.73416 -9.06039
2 -1.53533 -4.05993 -8.53242
2 3.68149 2.85519 -9.19071
3 8.12651 4.6066 -0.067256
1 7.85726 -1.44005 4.33735
3 6.81892 1.44001 -3.00521
3 0.014916 9.28105 -0.192185
3 2.76102 7.5778 4.18774
2 6.92554 3.49156 -4.66774
3 -7.81147 4.79855 -0.175804
1 -2.66115 7.7804 4.14425
1 -7.57147 -4.49425 -0.101471
1 -7.95576 -1.27695 4.173
1 -4.96051 -5.93354 4.1405
3 -2.65968 -7.61619 -4.41925
3 7.9443 -4.63946 -0.138661
2 5.17777 -6.14946 4.03496
3 2.77969 1.61519 8.47015
1 0.190379 -3.1049 8.47971
2 -2.37971 1.99353 9.15763
2 1.50135 -1.35653 -8.56324
2 -3.23073 -1.69349 -8.2834
2 6.80695 6.86947 -0.30776
3 6.71703 -2.44512 6.31775
1 4.8574 2.9405 -5.76164
2 -2.60511 9.28807 0.102772
3 1.4683 6.75581 6.29172
1 3.80794 5.34823 -6.8352
2 -9.23534 2.58229 0.143446
1 -1.11533 6.9945 6.28674
2 -5.46094 6.47569 -4.54373
1 -6.46612 -6.8255 0.0841681
2 -6.21352 -1.5608 6.53167
2 0.407264 -9.3213 0.14915
3 -4.93378 -4.42559 6.33739
2 9.06539 -2.20182 -0.175546
1 5.45091 -4.80999 6.13577
3 1.43211 -6.7747 -6.52515
2 1.36951 3.76595 8.38618
2 -2.3643 -2.86938 8.50162
3 3.29659 0.51209 -8.74092
2 -4.93157 0.0540146 -7.14911
3 -3.66217 2.2299 -7.54312
3 8.21259 3.21484 -2.55472
1 1.45911 8.41912 1.90801
2 -7.6285 -2.85087 2.2146
2 -1.28377 -8.28883 -2.23458
1 6.75461 -5.45166 2.01701
1 1.51489 -0.660779 8.52192
1 -0.124562 0.118846 -5.1811
2 7.98741 5.91245 -4.92314
3 0.0322102 7.59638 4.29699
3 -6.60664 5.51699 -2.36958
2 -6.13253 -3.68594 4.20031
2 0.122146 -7.45272 -4.39902
2 6.54374 -3.87023 4.20109
1 -1.19187 -0.697603 8.62889
3 -2.43996 0.222419 -6.74054
3 7.90954 1.57505 1.75179
2 2.56136 7.6129 -2.50812
3 -5.05357 5.94516 2.02588
2 -7.8654 -1.45414 -2.27779
1 -2.08171 -7.63369 2.1627
3 5.20627 -5.93213 -2.28636
1 5.29283 1.16999 1.6667
1 1.01874 5.58644 -2.9467
1 -3.92943 5.40537 4.38154
2 -6.6661 -0.592655 -4.45662
3 -2.39589 -5.94451 4.23735
3 3.93263 -5.26572 -4.28642
2 5.43522 -0.153939 6.37956
1 -2.69485 4.88207 6.47683
2 -2.34945 -4.33055 6.27138
2 7.03781 5.52265 -2.45156
1 -1.20807 8.56501 2.19298
3 -7.80269 3.28275 -2.16189
1 1.29793 -8.39212 -2.21431
3 0.21158 1.52385 8.40551
2 -0.498077 0.625497 -8.60964
1 6.58558 3.79346 2.05778
3 0.00249602 7.97632 -2.57293
3 -6.42366 3.97304 2.01395
3 -6.42469 -3.84001 -2.21891
3 6.65736 -3.73592 -2.10615
2 5.16664 2.96419 4.3674
3 -0.331515 6.78195 -5.11454
1 -5.26022 2.91259 4.84789
1 -4.03189 -5.36639 -4.52249
2 0.476808 -5.99919 3.93454
2 3.12692 -2.65253 -4.44398
3 4.10424 2.26856 6.41239
1 -0.375114 4.18473 -4.91561
1 -3.61285 2.30405 6.77626
1 -4.71281 -4.40933 -6.93318
2 0.207748 -4.59717 6.31493
2 3.74373 -1.87058 -6.89224
2 -2.53341 8.16443 -2.43127
2 -7.94081 3.23735 4.16567
3 -5.29383 -5.97622 -2.24988
1 0.734684 -7.89706 2.24886
1 7.25914 -1.21613 -2.29751
2 3.9824 5.41409 4.12317
2 -2.89753 6.70438 -4.86824
3 -6.53642 0.832107 4.1321
1 2.69892 -6.25977 3.12107
2 4.96476 -0.802922 -4.56364
3 2.73256 4.6676 6.25498
2 -2.59308 4.70012 -6.68433
1 -5.68045 0.885384 6.65558
3 -2.25241 -5.33563 -6.53393
1 3.24781 -6.53127 6.01977
1 3.77421 0.792637 -6.15161
2 13.4996 0.0411074 0.0369936
3 6.84717 11.4151 -0.189354
2 -6.54514 11.4787 -0.454733
2 -13.348 -0.0131258 0.182922
2 -6.52019 -11.3269 -0.203184
3 6.57398 -11.1633 -0.228481
2 6.58434 -3.92801 10.876
2 -6.49375 -3.64762 10.6829
1 -0.138264 -7.62711 -11.0841
2 6.38448 2.78917 -10.0105
2 -6.24125 3.30922 -10.9742
2 11.7102 0.731532 -2.28034
2 4.02911 11.5735 -0.254943
2 5.51908 10.6575 1.79445
1 6.76907 9.99636 -2.67448
1 -5.458 11.1372 2.1905
3 -6.6178 10.1908 -2.77861
2 -11.5997 -2.25203 0.0920063
2 -11.836 -0.645755 2.04067
1 -11.6689 0.850453 -2.14274
2 -3.72988 -11.2603 -0.0706069
1 -6.49544 -9.93543 1.76971
2 -5.31915 -10.5061 -2.31589
1 7.98736 -9.04703 -0.177203
2 6.77395 -9.95482 2.29114
2 5.43737 -10.6439 -2.29566
2 5.29705 -1.61555 10.7599
2 3.91707 -3.96156 10.7721
1 -1.20169 5.76067 10.4999
1 0.939837 -5.21529 -11.0329
2 -1.83106 -4.66477 -11.1031
2 2.2099 5.16524 -9.19841
1 12.183 2.32636 -0.0319624
3 10.5626 -1.38196 4.2685
3 10.5132 1.65198 -4.33901
1 1.48817 11.555 0.117589
1 4.27949 9.69891 4.49785
1 6.4942 8.1826 -4.74009
2 -9.30006 6.95103 -0.207619
1 -10.4176 -4.37351 0.12973
3 -10.4021 -1.39838 4.72081
3 -10.3703 1.58664 -4.33064
3 -1.11469 -11.4297 -0.19885
2 -6.14504 -8.38676 4.13253
2 -3.93294 -10.0365 -4.57357
1 9.54685 -6.64854 -0.164633
2 3.91979 -9.84437 -4.40084
3 4.00655 0.821593 10.8306
3 1.40229 -3.86563 10.5543
2 -3.79921 -3.85776 -9.49965
1 9.40935 6.78141 -0.149962
2 9.28217 -2.19323 6.25139
2 -1.16692 11.5581 0.0526767
3 2.66568 9.03932 6.37911
2 5.3053 5.73688 -4.7298
1 -10.5305 4.79397 0.133551
1 -2.34119 9.65357 6.72556
2 -7.00251 7.14143 -6.71482
1 -9.04346 -6.66476 -0.0825551
1 -9.92211 -3.57225 6.49284
1 -9.05014 2.62597 -6.41333
3 1.49919 -11.5542 -0.0430933
1 -6.27355 -6.80263 6.27381
2 -2.66614 -9.27895 -6.71353
2 6.35158 -7.29406 6.37072
2 2.75676 -9.00699 -6.70751
2 2.55054 3.02732 10.745
1 -1.20303 -3.90941 10.6118
1 3.28347 -1.34241 -10.6676
2 -3.47905 -1.50241 -11.146
2 -1.89859 4.1484 -11.4404
1 8.22744 9.10963 -0.50679
2 7.91729 -3.24661 8.66742
3 5.69242 1.58168 -7.90427
2 -3.74044 11.7251 0.0129007
1 0.305853 9.04753 6.47841
2 4.94161 5.24383 -8.83822
2 -11.8516 2.355 0.185169
2 -1.62625 9.18868 9.31508
3 -5.71275 4.79838 -8.80032
3 -7.82056 -8.99501 -0.248099
1 -8.20284 -2.18968 8.33767
2 -7.91682 3.21624 -9.18841
3 3.98307 -11.4489 -0.124101
2 -6.34233 -5.28991 8.40071
3 -1.42803 -8.41898 -8.84604
1 11.9868 -2.24496 -0.103518
2 6.77863 -5.45799 8.4209
1 1.30053 -8.27655 -8.66967
2 1.40866 5.37749 10.5249
2 -3.69221 -3.83325 10.5121
2 -5.07349 -1.40664 10.8868
2 -5.33856 0.911667 -9.66836
1 -3.89214 2.92234 -10.0633
1 10.6547 2.98778 -2.16219
3 2.95007 10.7041 2.05892
1 -7.96051 7.95637 -2.10658
2 -10.3325 -2.6107 2.26246
1 -2.65555 -10.4164 -2.47825
2 8.27088 -7.52943 1.82938
3 2.67595 -1.67143 10.6638
2 -0.986641 -1.84019 -9.75053
1 9.95921 4.09774 -4.36177
2 1.65673 9.98015 4.19355
1 -7.96306 6.17609 -4.46943
2 -9.15612 -3.82714 4.2003
2 -1.07753 -9.69342 -4.44403
2 7.87303 -6.26679 4.39527
3 0.184517 -1.62855 10.682
1 -1.0634 -1.87048 -7.04575
2 6.69329 3.82859 -7.33019
2 -7.62077 4.60071 -6.80051
1 -7.5057 -4.37307 6.32433
3 0.150263 -9.11715 -6.57514
3 8.11052 -4.52143 6.38129
2 -2.38406 -1.37789 10.8396
2 -2.71017 0.53849 -9.78384
3 10.6014 1.57701 2.03169
3 4.05571 9.83243 -2.4254
2 -6.58593 8.4799 1.99149
2 -10.5454 -1.39018 -2.0821
2 -3.51959 -9.95152 2.13838
1 6.49957 -8.3292 -2.19034
3 -5.3096 7.73693 4.2107
2 -9.20824 -0.717456 -4.50163
1 -3.47825 -8.47045 4.25534
1 5.27764 -7.5356 -4.33907
3 8.12724 0.0802179 6.6502
2 3.83251 8.6928 -4.70232
1 -3.68641 7.29428 6.50622
2 -7.92429 0.133008 -6.61499
1 -3.41141 -6.82535 6.3596
1 4.21244 -6.51081 -6.63309
1 6.69151 -0.882485 8.56421
2 0.169291 4.84021 -7.06683
1 -2.50456 6.59346 8.57092
2 -3.6998 -5.32162 8.44813
2 2.51235 -5.94741 -8.7509
3 9.65101 5.43142 -2.2628
2 0.131512 10.626 2.05908
2 -9.15262 5.55848 -2.39793
2 -8.84784 -5.3521 1.96839
2 0.111112 -10.5522 -2.26368
1 9.34543 -5.17779 2.04954
3 1.49051 0.837144 10.7302
2 0.896005 -0.292598 -10.9128
2 -1.12515 9.88547 4.44672
3 -7.64705 -5.7536 4.18213
3 1.43858 -9.74044 -4.38767
2 9.3658 -3.79125 4.28839
2 -1.03096 0.785862 10.8332
2 -0.548478 1.8654 -11.0118
2 9.47394 3.85713 2.10689
2 1.46409 10.2173 -2.09644
2 -7.90935 6.0422 2.16058
2 -9.01892 -3.793 -2.33294
3 -0.945974 -9.99821 2.1128
2 7.89183 -6.19604 -2.29896
2 6.65653 0.654442 3.82246
1 1.25004 9.03227 -4.60213
3 -6.48854 5.44752 4.22706
2 -8.00334 -2.95867 -4.47588
3 -0.91495 -8.42696 4.36601
2 6.57898 -5.01303 -4.33394
2 2.39718 6.41143 -4.90697
2 -5.33089 6.5374 8.6548
2 -6.37385 -2.2767 -6.78649
2 5.20428 -4.01489 -6.25685
3 5.38887 1.62671 8.60843
3 -3.76229 4.08575 9.07918
3 -5.58993 -1.62597 -9.2854
2 -0.992402 -5.4784 8.51793
1 3.8016 -3.41733 -8.84724
2 8.1854 7.79786 -2.83637
3 -2.52537 10.9351 2.2124
1 -10.5077 3.36677 -2.37777
2 2.70892 -10.5909 -2.22795
2 10.606 -3.04846 1.85387
3 -0.0808576 3.09772 10.6303
2 0.751926 3.11126 -9.01431
2 8.05184 6.17504 2.00276
2 -1.08964 10.3581 -2.19736
2 9.24184 -3.87938 -2.31039
2 6.66218 5.33467 4.2021
2 -1.3901 9.11084 -4.52215
2 -6.62721 -5.49196 -4.23398
2 1.92667 -8.35223 4.42519
1 7.34211 -2.69646 -4.47568
1 5.30934 4.53006 6.53538
2 -1.58426 6.95246 -7.31157
1 -3.9647 -7.16379 -6.66129
2 6.33746 -1.66963 -6.59474
2 -3.16119 5.53427 -9.35393
2 -5.08191 1.75801 9.13337
1 1.80596 -5.28712 8.25831
2 6.60938 8.16413 1.95117
1 -4.05514 10.3368 -2.19887
1 -10.2724 1.81033 2.17334
3 2.66822 -9.74586 1.43204
1 10.1054 -1.46858 -2.28692
2 5.52882 7.64499 4.23453
2 -9.13144 0.914101 4.16243
2 -5.21807 -7.6503 -4.13077
1 8.75168 -0.200406 -4.47576
2 4.14674 6.96194 6.32009
2 -4.46172 6.67144 -7.11527
1 -8.20305 -0.19661 6.4804
1 -4.96648 4.34891 -6.24389
2 -6.38439 -0.523216 8.84042
1 -2.69319 -6.20818 -8.84625
3 4.13546 -5.44203 8.51239
2 16.1744 0.17397 -0.1947
2 8.30846 13.5924 -0.313931
2 -8.05121 13.7747 -0.0681999
2 -16.0685 0.0386084 0.240415
2 -7.72696 -13.6501 0.0852276
3 8.31887 -13.5802 -0.163708
1 7.96012 -4.77024 13.1914
2 0.336679 8.73159 11.1303
2 -7.53898 -4.50596 13.1937
3 8.18517 3.60922 -11.6576
3 -7.75943 4.3646 -13.0183
1 14.8829 2.35216 0.24973
1 14.6924 -0.869961 1.90593
2 14.5076 0.919221 -2.27244
3 5.57439 13.8116 0.102058
2 7.2137 12.6245 1.94646
2 8.24412 12.3467 -2.62535
2 -8.06978 12.309 -2.54085
3 -14.598 -2.28416 0.130037
2 -14.6252 -0.755087 2.39089
2 -14.7236 0.93224 -2.10991
1 -5.18418 -12.7614 1.20688
1 -7.44581 -12.377 2.29204
3 -6.46898 -12.9755 -2.44992
3 9.38032 -11.2747 -0.0815022
2 8.10548 -12.3143 2.15613
3 6.72638 -12.8418 -2.67314
2 6.41862 -2.18593 13.0802
1 5.48229 -4.57142 13.2504
3 1.03565 -6.51046 -13.3124
3 -1.8339 -6.80692 -13.14
2 3.61617 4.50694 -11.4359
2 13.4401 4.61694 0.11671
2 13.0334 2.00997 -4.42522
3 3.08375 14.0137 -0.00895679
1 8.12523 10.7507 -5.02052
2 -10.6925 9.75393 -0.0333798
1 -3.83677 10.3218 4.50168
2 -13.1548 -4.6723 0.178495
1 -13.232 -1.24944 4.86939
3 -13.0298 1.85178 -4.18852
2 -2.75037 -13.7801 0.00506634
3 -7.72157 -10.4793 3.95693
2 -5.37866 -12.1362 -4.43584
3 10.6571 -8.91758 -0.196149
2 8.2311 -11.0019 4.26489
3 5.23763 -0.0294061 12.9665
3 2.75385 -4.72536 12.8489
1 -2.78021 4.49638 12.4041
2 2.56487 -4.43504 -12.9673
2 -2.71269 -3.60135 -13.4474
2 12.0919 7.18735 -0.0405111
3 12.0593 -2.41572 6.60923
2 11.3825 3.13661 -6.19353
2 0.406874 14.2793 0.204576
1 4.48603 10.7793 6.89784
2 7.82457 8.92819 -6.95646
2 -12.0329 7.06506 0.0118786
2 -8.12684 9.62738 -6.22587
2 -11.8329 -6.94017 0.0834668
1 -11.6575 2.31262 -6.46975
2 -0.00651446 -13.7782 -0.185769
2 -7.65419 -9.52787 6.3572
3 12.1212 -6.80954 -0.170002
2 8.01798 -9.1741 6.32529
3 4.17204 -11.366 -6.59383
1 3.86694 2.29376 13.018
3 0.220872 -4.58148 12.7854
2 -3.44677 0.882054 11.4766
1 4.09908 -2.20919 -12.9944
1 -4.43252 -1.59098 -13.901
2 -0.690624 2.78269 -13.486
2 10.6976 -3.02935 8.6693
2 8.70076 2.20567 -6.36154
2 -2.32691 14.1308 0.223619
2 1.66917 9.97894 8.92779
3 8.83441 6.95138 -8.25187
2 -13.1953 4.68468 0.119597
1 -8.52347 8.34279 -8.5353
2 -10.3516 -8.92149 -0.0498645
2 -10.6133 -2.69559 8.82242
3 -10.6466 3.52347 -8.52358
2 2.94092 -13.779 -0.196656
1 -7.80022 -7.4495 8.42943
3 -2.57176 -10.7788 -8.85034
1 8.0371 -7.56404 8.64095
3 2.72994 -10.747 -8.75768
3 2.47944 4.64352 12.8278
1 -2.3575 -4.56466 12.9757
2 -5.13446 0.00677099 13.237
1 5.74469 0.308518 -13.0672
2 -4.73925 0.47032 -12.5388
3 -3.0236 5.62072 -13.0916
2 9.00433 11.0116 1.03466
2 9.32831 -3.98822 10.6945
2 -5.15533 14.0024 0.0628922
2 7.89762 4.8113 -9.49843
2 -14.6552 2.40587 0.142567
3 -2.16018 9.59928 12.0157
2 -7.57532 5.56054 -10.5574
3 -9.01669 -11.3733 0.0830498
2 -9.23816 -3.5883 11.0112
1 -9.83027 2.69314 -10.7661
1 5.60288 -13.5328 -0.3607
2 -7.78465 -5.86893 10.6647
1 -1.31017 -10.0727 -11.1711
3 7.92365 -6.18716 10.6838
2 1.3111 -9.74696 -11.2677
2 1.2098 6.94841 12.8504
2 -5.12052 -4.53174 12.637
2 -6.37638 -2.23482 12.9426
1 7.91144 1.56421 -13.1978
1 -6.48571 2.0293 -13.3197
2 -5.26052 4.43334 -13.2236
1 13.3034 3.24543 -2.33119
2 4.28861 12.9084 2.11548
2 -9.19899 10.0291 -2.90211
2 -13.1303 -2.9585 2.23979
2 -3.87849 -12.8014 -2.28006
2 9.54568 -9.92998 1.98088
3 3.97442 -2.40982 12.8539
2 -0.259264 -4.22415 -13.1774
2 3.25175 11.974 4.34737
2 -11.6714 -3.59053 4.52466
2 9.27327 -8.66278 4.32662
3 1.52726 -2.46528 12.8991
3 -1.26785 -1.98378 -12.2347
2 1.74145 11.3644 6.54767
2 -9.4345 7.29905 -6.27237
1 -1.22845 -11.4259 -6.68274
2 9.38589 -6.94504 6.49891
3 -1.00647 -2.39861 12.761
2 -1.94698 0.441935 -12.6607
3 -0.487373 11.1456 7.76189
2 -9.37145 5.78241 -8.38588
2 -9.04537 -4.81065 8.49645
2 0.0842319 -10.6035 -8.90603
2 -3.67066 -2.45179 13.1051
1 -3.41461 2.90613 -12.9216
3 13.4919 1.41347 2.25234
1 5.32562 12.4226 -2.1954
1 -7.97319 10.7092 1.65287
1 -13.0121 -1.42253 -1.84985
1 8.06468 -10.5199 -2.25348
1 11.7596 -0.673873 2.19927
3 5.3131 10.6604 -4.70667
2 -11.8734 -0.485663 -4.5732
1 -5.18349 -11.0345 3.94902
2 6.54315 -9.91591 -4.40569
2 9.30579 0.894157 4.11283
2 5.11104 9.3253 -7.11933
2 -5.32126 9.38912 6.51279
2 -10.5246 0.105639 -6.55721
3 -5.03873 -9.15254 6.4135
1 5.25417 -9.02291 -6.6373
2 9.44775 -0.792494 8.71093
1 6.06579 6.83636 -7.01792
3 -4.18674 8.90772 8.84482
3 -9.17877 1.12029 -8.56631
2 -5.00055 -7.68454 8.43255
3 3.96245 -8.09448 -8.73904
2 7.98226 -1.65773 11.0278
2 6.64995 7.33513 -9.56451
2 -4.12284 5.67078 10.9576
2 -7.66537 1.32623 -10.8602
3 -5.05329 -6.15647 10.6773
1 2.4443 -7.41847 -11.1106
2 10.798 4.66824 -0.0221876
2 1.64024 12.9601 2.27487
2 -10.9295 7.96485 -2.08377
2 -1.20392 -12.9109 -2.38582
1 10.8924 -7.61267 2.00346
2 2.6147 -0.172765 12.7399
1 10.466 6.76267 -4.46554
2 0.202971 12.2491 4.54305
1 -10.5388 6.48949 -4.18657
1 -10.4429 -6.08268 3.83633
3 0.253338 -12.1099 -4.48475
2 10.8237 -6.30896 4.14801
1 0.203037 -0.580301 -13.4752
1 9.91295 5.54545 -6.61452
2 -1.85934 11.9741 5.76799
2 -10.3075 4.94615 -6.22237
1 -9.2733 -6.40627 6.30028
2 1.40465 -11.3575 -6.5736
2 10.6635 -4.65933 6.35878
2 12.1053 3.70898 2.2213
3 2.8017 12.6135 -2.08382
2 -9.05218 8.4741 2.07973
3 -11.9148 -3.70024 -2.07048
3 -2.42825 -12.1408 1.97387
2 12.1191 0.815332 4.22536
1 2.80609 11.1089 -4.32101
3 -7.82101 7.81005 4.20949
3 -10.5295 -2.88943 -4.34037
2 -2.14713 -10.8974 4.15464
3 8.1195 -7.85895 -4.45107
2 2.54897 9.37129 -6.9249
1 -6.6067 7.07507 6.37161
3 -2.39836 -9.32518 6.4834
1 6.83 -6.79585 -6.41368
3 3.67487 7.48367 -8.35578
1 -8.06268 -1.59938 -8.82898
1 -2.43354 -7.74417 8.55607
1 5.26961 -6.01645 -9.06319
2 6.54968 0.584838 10.6944
2 0.866284 4.08857 -11.5676
3 -6.3418 -0.830084 -11.477
2 -2.55859 -6.20262 10.7105
2 3.9703 -5.20025 -10.8781
1 10.9268 7.71448 -2.14218
2 -1.18825 13.0863 2.32231
2 -11.8328 5.51192 -2.2646
2 1.44343 -12.8747 -2.28354
2 11.9763 -5.42546 1.81208
2 1.19949 2.42343 12.7546
2 2.93513 0.110524 -12.6821
2 9.6084 9.85559 -3.20357
2 -3.99082 13.0783 2.37042
3 -12.028 4.0085 -4.39899
3 -8.93092 -8.31367 4.27457
2 12.0011 -3.88145 4.13449
3 -1.52498 2.46024 12.7094
3 2.1947 1.92069 -11.0007
2 10.7945 6.29127 2.07376
3 0.179892 12.5222 -1.99597
3 -10.5482 6.53216 2.03217
2 -10.6809 -6.07933 -2.16473
2 0.108973 -12.1803 2.02688
2 10.7397 -6.05575 -2.37181
1 8.08801 2.98418 4.18834
3 -9.28452 5.60808 4.3199
2 -9.22742 -5.31884 -4.54767
2 0.399109 -10.7172 4.19185
3 9.30139 -5.46563 -4.42745
2 6.71375 2.29543 6.34755
2 -0.27832 9.22739 -6.97044
1 -8.1256 4.79491 6.41049
2 -7.99845 -4.45445 -6.71124
2 0.411441 -9.42217 6.46321
2 7.96016 -4.44651 -6.42085
2 6.52949 3.85313 8.78476
2 1.24516 6.99176 -7.1638
2 -6.56448 -3.91219 -8.73809
2 0.253802 -7.94536 8.8457
3 6.48185 -3.72157 -8.62286
2 4.01201 3.7878 8.5118
2 -0.477043 5.48832 -9.79886
2 -4.96617 3.29061 11.2976
2 -5.44438 -3.28905 -11.6392
3 -0.00795345 -6.32899 10.91
2 5.23476 -2.85167 -10.7532
2 -13.1083 3.12726 -1.9974
2 -9.03716 -9.47686 1.93409
3 4.10385 -12.9907 -2.30854
3 13.2651 -3.14678 2.19746
2 -0.186499 4.71958 12.6447
1 4.70276 1.19352 -10.8204
3 9.22071 8.41733 1.70809
3 -2.6211 12.554 -2.13528
3 -11.8965 3.80699 2.23122
3 -8.9772 -8.16876 -2.31347
3 2.77922 -12.3514 1.9982
1 11.9441 -3.77057 -2.29606
3 8.11773 7.79182 4.0634
1 -0.845829 11.9158 -4.20763
2 -10.4716 3.2791 4.11956
3 -7.83864 -7.71743 -4.50176
2 3.065 -10.7465 4.00976
1 10.3814 -2.97729 -4.44629
2 -4.2912 9.17247 -4.37031
1 -9.38661 2.21759 6.29441
3 -6.71813 -6.81197 -6.50925
3 3.12376 -9.33348 6.35068
1 8.78279 -1.97761 -6.48669
2 2.63893 6.05329 8.38983
3 -3.35103 8.14046 -8.94729
1 -7.97883 1.54139 8.52591
3 -5.27581 -6.21116 -8.74924
2 2.84062 -7.77135 8.48374
3 3.89542 5.2861 10.4862
2 -2.34254 7.06534 -11.1187
2 -6.46661 1.02431 11.0983
1 -6.70997 -5.42652 -10.8534
2 2.677 -6.10102 10.564
1 -5.41627 12.6656 -2.49818
3 -7.8501 -10.5548 -2.33704
2 5.2474 -11.9282 2.07826
2 13.0849 -1.61178 -2.31479
1 -11.7854 1.12228 4.1922
3 5.53082 -10.9923 4.48869
1 11.5093 -0.622913 -4.43556
1 6.7139 9.44612 5.79256
2 -5.49924 9.18683 -7.22136
2 -10.7347 -0.596201 6.92985
2 -5.37705 -9.17316 -6.68002
2 6.66274 -8.53061 4.11684
1 10.3289 0.229672 -6.59442
2 4.08697 8.62182 8.41042
2 -6.07375 7.58077 -9.23883
1 -3.95776 -8.51531 -8.92357
3 5.39235 -7.68267 8.75444
2 6.69845 0.871252 -5.69924
2 2.51351 7.62783 10.4488
2 -5.06927 6.12604 -11.1141
2 -7.95215 -1.1885 10.9333
2 5.28053 -6.19886 10.7238
3 18.8784 0.0959134 0.324877
3 9.56228 15.8823 -0.691392
3 -8.74806 16.1105 -0.494561
3 -18.5918 0.0883608 0.133413
1 -9.73745 -15.9547 0.610299
1 9.59009 -5.3279 15.6032
3 -0.228548 -9.02793 -13.2802
3 7.80699 3.86939 -14.1367
3 -9.26809 5.25834 -14.9069
3 17.5094 2.41199 0.0423562
1 17.2907 -1.32015 1.56267
2 17.2215 0.865632 -2.43747
2 8.77195 14.6931 2.09972
1 10.1953 14.3139 -2.63553
3 -10.6255 14.3577 0.193006
2 -8.13744 15.5997 2.04158
3 -9.41335 14.3528 -2.28144
1 -17.4084 -2.32853 0.349172
3 -17.1845 -0.90379 2.56551
2 -17.4136 0.857272 -1.9868
2 -7.06608 -16.4803 0.209728
3 -8.94254 -14.5279 2.63492
2 -7.74828 -15.0976 -2.09753
2 9.44424 -14.8767 2.4172
2 8.18243 -14.9709 -2.4455
2 8.34902 -3.08506 15.9472
1 5.67456 -2.78787 15.4478
1 -0.650864 7.15433 15.4982
3 1.20309 -8.16875 -15.3465
3 -1.88769 -8.2991 -15.385
2 6.06422 5.35699 -11.3341
2 15.978 4.60218 0.185418
1 16.3894 -1.28602 4.48067
2 15.6015 1.93513 -4.65757
1 4.5613 16.0944 0.27928
1 10.3533 12.0293 -4.13596
2 -12.3966 12.1904 -0.176193
2 -6.58832 13.4547 2.39213
3 -10.242 12.026 -4.28994
2 -15.8133 -4.64896 0.308266
2 -15.832 -1.46542 4.58262
3 -15.9536 1.86116 -4.24181
2 -4.26863 -16.1831 -0.24516
2 -8.75455 -12.7195 4.45175
2 -6.49594 -14.475 -4.59016
3 11.7053 -11.2425 -0.0885499
1 9.68669 -13.1653 4.42236
1 6.79108 -14.5615 -4.60664
1 5.78611 0.918043 15.3475
1 -3.18235 6.06743 14.7731
2 2.43586 -5.94549 -15.3336
2 -2.92428 -5.78548 -14.9791
1 3.79666 5.10097 -13.7263
3 14.7686 6.90493 0.0467688
1 13.4247 -1.53833 4.33551
3 13.9234 2.77112 -6.77815
2 5.82101 12.864 6.57373
3 9.33365 12.2563 -6.69406
2 -13.3638 9.46522 -0.0384061
1 -5.2708 12.5329 4.66624
1 -9.53842 11.6295 -6.79349
3 -14.4479 -6.82124 0.304614
2 -14.2291 -1.50768 7.14889
2 -14.2217 2.55938 -6.39222
2 -1.41196 -16.2398 -0.270337
1 -11.4706 -11.6237 7.10882
2 13.1976 -9.12073 -0.0933002
3 9.3053 -11.5339 6.5238
2 5.38351 -13.6846 -6.72879
1 3.9161 3.91155 15.1561
3 0.937324 -5.74907 14.8561
1 -4.24774 3.46547 14.609
1 3.79113 -3.78435 -15.1469
2 -3.6114 -3.24458 -15.6885
3 1.24608 4.76045 -14.1213
1 13.5296 -3.2774 8.66996
2 12.6178 3.45737 -8.76757
2 -0.946238 16.2785 0.448382
3 3.04629 12.1999 8.67337
2 9.45634 10.2067 -8.2021
1 -14.5977 7.22597 0.130099
3 -4.11884 11.6235 6.89495
1 -13.1591 -3.10765 9.00443
1 -13.2663 3.30291 -8.55745
3 1.4423 -15.8699 -0.157779
2 -8.99983 -9.75605 8.82512
2 -3.86132 -12.9873 -8.91789
3 13.4446 -4.50335 -0.0819298
1 9.39869 -9.98468 8.49052
2 4.22847 -12.8465 -8.80823
1 -1.46799 -5.23963 15.5826
2 -5.28438 1.32093 15.3111
1 5.05857 -1.40618 -15.4976
2 -6.05436 -2.24113 -15.8952
3 -1.11461 5.07977 -14.6633
1 10.888 9.42919 0.00899258
2 12.0057 -3.95105 10.7921
2 12.5743 2.16567 -11.1646
3 -3.5936 16.3167 0.528828
3 2.02165 11.3889 10.9875
3 8.94104 8.87397 -10.2035
1 -15.8511 4.79843 -0.0220323
3 -2.73856 11.5462 9.62998
2 -8.56534 8.37429 -10.908
3 -11.4117 -11.5896 0.10965
3 -11.782 -3.57873 11.0447
2 -12.0225 4.29014 -10.656
3 4.19705 -15.9573 -0.081289
3 -9.31172 -8.05482 10.8892
2 -1.27616 -13.177 -8.9838
3 16.0685 -4.73592 -0.0387072
3 9.29512 -8.28822 10.6445
2 2.61825 -12.3021 -11.112
2 2.74244 6.32673 14.8251
2 -3.79826 -5.46699 15.0204
2 -6.804 -1.06272 15.2221
3 7.42373 -0.227339 -14.7832
3 -5.96239 0.323398 -14.9857
1 10.6995 13.7704 0.48222
3 10.7767 -4.73173 12.7085
1 -5.75808 16.6358 -0.815972
3 1.51062 11.2897 13.3598
3 9.45889 5.23519 -12.6978
3 -17.2162 2.38677 0.0686076
1 -9.64288 7.1337 -13.1441
3 -10.2468 -13.6148 0.122782
3 -10.3295 -4.45476 13.1761
1 -10.4776 4.42335 -12.6183
3 6.91724 -15.8389 -0.276968
2 -8.86639 -6.68115 13.2817
1 15.2643 -2.19726 -0.213022
2 9.1255 -6.92384 12.8695
2 3.91801 -11.401 -13.2095
2 1.66305 8.77723 15.2949
1 -6.40646 -5.58381 15.4848
1 -8.18819 -3.2555 15.4898
2 7.66571 2.73739 -16.4867
3 -7.6809 2.8668 -15.3945
3 -6.75568 5.38 -14.9629
2 16.0327 3.12635 -2.27982
2 6.01983 15.1667 2.34709
3 -10.6173 12.1473 -1.93265
1 -15.9368 -3.10482 2.35532
3 -5.11143 -15.14 -2.49261
2 10.6994 -12.3329 2.20463
1 -0.452848 -6.0669 -15.3664
2 4.57362 14.3174 4.57057
1 -11.0604 9.44129 -4.3795
3 -14.2316 -3.66516 4.47725
1 -3.72261 -14.1832 -4.49163
3 10.7608 -10.9421 4.2792
3 2.72335 -2.95225 15.0238
1 1.41225 -2.76964 -14.3713
1 14.2454 4.25478 -4.59529
3 3.2574 13.4369 6.57278
3 -10.6021 9.36313 -7.18048
1 -12.6184 -3.99966 6.83915
3 -2.54483 -13.8892 -6.79806
3 10.701 -9.15493 6.30209
2 0.125835 -3.33068 14.9444
2 11.4166 5.68971 -8.44373
1 0.682522 12.9809 9.45677
1 -11.1245 8.524 -9.53446
1 -11.586 -5.13053 8.87049
2 10.8708 -7.96641 8.627
3 9.8811 3.51776 -8.32374
3 -0.402848 11.0148 10.7352
2 -10.3895 6.4621 -10.7751
2 -10.8216 -6.17777 11.1799
1 -0.105677 -12.5605 -11.228
2 10.8362 -6.33071 10.7582
3 -5.40619 -3.42277 14.9286
3 -4.72561 2.83786 -15.3441
3 6.81285 14.4763 -2.46866
3 -9.05602 13.1095 2.24653
1 -15.9909 -1.36139 -1.7616
3 -6.5842 -14.7886 2.07709
3 9.28855 -12.7898 -2.2601
2 6.33044 13.0886 -4.65345
2 -9.06992 9.99882 4.16064
1 -14.4524 -0.340636 -4.38852
1 8.18605 -12.1594 -4.48237
2 10.8773 -0.108083 6.48908
2 6.4239 11.4393 -6.89333
2 -6.49944 10.0849 4.3571
2 -6.33679 -11.676 5.92326
2 6.81666 -11.3772 -6.6245
1 12.4552 -0.993014 8.75493
2 6.95043 10.0233 -9.37849
3 -5.6717 10.7616 8.81037
2 -11.9631 0.949867 -8.61844
1 -6.47182 -9.86421 8.74607
3 5.22561 -10.5592 -8.7867
3 10.7111 -1.69388 10.7168
3 -4.45396 9.86706 10.9011
1 -6.63962 -8.47394 10.9571
2 3.9734 -9.59893 -10.8713
2 9.35845 -2.58147 13.3803
2 7.71838 7.28337 -11.8267
1 -0.212233 9.43232 13.7864
1 -9.36007 2.24548 -13.3409
3 -6.39653 -6.77645 13.0455
1 14.7796 5.39979 -2.03165
2 3.11121 15.2363 2.30099
2 -12.2879 10.257 -2.26768
1 -14.6353 -5.41907 2.52692
2 -2.54613 -15.1509 -2.37895
3 12.1322 -10.0818 2.20253
2 4.13562 -0.733514 15.1808
1 1.54947 -4.1999 -16.7164
1 1.74439 14.4368 4.60408
2 -12.8714 -5.93288 4.21308
2 -0.936269 -14.5348 -4.31548
3 11.9291 -8.69222 4.36011
2 0.979614 -0.881418 14.7834
2 0.02379 -1.26005 -16.1568
2 11.9833 7.54062 -6.46558
2 0.665177 13.7625 6.96901
2 -12.1216 7.79493 -6.02246
2 -11.8153 -6.68834 6.46712
1 0.134739 -13.7083 -6.59038
3 11.802 -7.10676 6.43273
1 -1.62764 -1.32674 14.8614
3 -0.961816 0.97411 -15.2887
1 11.1656 8.22661 -8.79201
1 -1.73626 13.3826 8.04362
1 -11.9985 6.03168 -8.3071
2 -10.4375 -7.21801 8.63131
2 1.48618 -13.1042 -9.14147
3 -4.14283 -1.18991 15.1566
3 -2.29634 3.26033 -15.4121
3 14.8655 3.87648 2.27032
1 4.20981 14.8104 -2.17722
1 -10.7354 10.9 2.08737
2 -14.4497 -3.60573 -1.98912
2 -3.94571 -14.6053 2.22164
2 10.5782 -10.5587 -2.24
2 14.9428 0.74248 4.42299
1 3.74091 13.4345 -4.54932
1 -13.2556 -2.85473 -4.31185
2 -3.81398 -12.951 4.12989
2 10.591 1.6281 8.65451
3 3.77506 11.7166 -6.60067
3 -8.05562 9.25175 6.45984
2 -11.994 -2.28971 -6.43586
3 -3.68432 -11.4123 6.12612
3 7.82511 -9.16376 -6.48866
2 11.9788 0.612557 10.5976
2 4.69833 11.5294 -8.92463
1 -6.74367 8.5185 8.51423
1 -10.6602 -1.49458 -8.61186
3 -3.78932 -9.86815 8.62567
3 6.63031 -8.31716 -8.50918
1 9.27323 0.710943 10.9204
1 4.54018 9.25597 -9.83423
3 -5.67131 7.82181 10.8202
2 -9.08844 -0.930474 -11.1728
2 -4.06816 -8.66198 10.8895
3 5.3475 -7.4351 -11.0502
1 7.83072 0.100951 13.6512
3 4.18194 6.86084 -10.7636
2 -3.81377 7.67265 12.5031
3 -7.97371 0.168517 -13.1217
2 -3.68322 -6.98002 13.0027
2 3.78327 -6.6023 -13.0745
1 13.5069 7.92004 -1.99959
3 0.397859 15.3756 2.50633
2 -13.4824 7.96287 -2.14776
1 -13.1674 -7.61691 2.32166
3 0.282432 -15.213 -2.32255
3 13.5618 -7.99735 2.23418
2 2.31831 1.35301 14.9083
1 1.21955 -2.62989 -11.6073
3 12.1116 8.87894 -4.06415
1 -1.199 14.3014 4.40464
3 -13.4135 6.488 -4.33946
2 -11.476 -8.18083 4.24465
1 1.67903 -14.4273 -4.48022
1 13.2859 -6.2981 4.09588
2 -0.392074 1.49479 14.759
3 1.38353 1.40876 -14.5342
2 10.4751 9.71298 -5.68029
1 -3.29176 14.0783 5.91995
3 -13.1609 4.91952 -6.43296
2 -10.2336 -9.11714 6.42563
2 2.76597 -13.6744 -6.70906
2 13.3497 -4.77025 6.45284
1 -2.97078 1.15878 14.3414
2 13.4802 6.11117 2.14601
3 1.58672 14.8389 -2.01128
2 -11.9475 8.51143 2.10498
2 -13.1722 -6.09535 -1.9188
2 -1.38521 -14.5465 2.00324
1 12.0735 -8.333 -2.32759
3 10.7852 3.20512 4.34426
2 1.29666 13.5217 -4.23839
3 -10.5566 7.84895 4.34238
2 -12.0061 -5.38957 -4.34744
3 -1.02529 -13.084 4.07003
3 10.699 -7.56911 -4.63255
1 9.35545 2.29779 6.42712
2 0.979316 11.3448 -6.06808
3 -9.28802 6.93684 6.52315
2 -10.6043 -4.61435 -6.66479