3798
 Atoms. Timestep: 6000
3 2.75051 0.0303112 -0.0200357
2 1.61707 2.36076 0.0732814
2 -1.2697 2.16181 -0.095207
1 -2.33643 -0.0731601 -0.0289948
3 -1.32652 -2.48064 -0.0448312
2 1.26661 -2.34975 0.119145
2 1.37326 -0.646653 2.17611
2 0.0905887 1.45926 2.16733
2 -1.30803 -0.726629 2.0018
2 -0.00907969 -1.50194 -2.08352
1 1.38918 0.949243 -2.06569
3 -1.1638 0.819655 -2.25664
1 5.39063 -0.154682 -0.0325073
1 2.76347 4.56506 0.0190775
3 -2.71386 4.66344 -0.0357803
2 -2.97595 -4.74745 0.00214744
3 2.61671 -4.67996 -0.0591175
2 2.65224 -1.56589 4.49661
2 0.114698 3.16912 4.51832
2 -2.74597 -1.51813 4.30048
2 -0.0633647 -3.32363 -4.23549
3 2.84181 1.45652 -4.32169
3 -2.68633 1.54645 -4.5755
1 4.16082 2.31041 0.0662353
2 3.91027 -0.824032 2.17754
3 4.09618 0.677298 -2.16439
1 1.40666 3.92969 2.23552
2 2.65089 3.09739 -2.11726
1 -4.03193 2.20784 0.0229298
2 -1.28791 3.75282 2.01417
1 -2.68722 3.02966 -2.16078
1 -4.11918 -2.33893 0.0245412
1 -4.09715 -0.836818 2.09168
1 -3.89862 0.620815 -2.16522
2 -2.82407 -3.1019 2.12798
2 -1.4361 -3.85264 -2.14621
3 3.96826 -2.39241 0.0104908
2 2.52048 -3.04369 2.32596
2 1.07057 -4.05426 -1.98112
3 1.30938 0.701989 4.39646
2 0.0309588 -1.71775 4.35939
1 -1.09008 0.757543 4.29797
2 1.44204 -0.778429 -4.14948
1 -1.45374 -0.779617 -4.33755
2 0.0540123 1.58132 -4.25265
3 2.75927 1.58209 2.30459
3 -0.0591181 3.2142 -2.26443
1 -2.71526 1.50473 2.06761
3 -2.75415 -1.60962 -2.08435
2 -0.0836228 -3.11541 2.15869
2 2.65695 -1.54838 -1.9909
2 8.12775 0.0191889 -0.102905
1 4.02489 6.89813 -0.116822
1 -4.06598 7.09691 -0.180231
1 -7.95396 -0.0764524 -0.286374
1 -4.04696 -6.88262 0.0500274
3 3.95146 -7.06872 0.0125937
1 4.0623 -2.37604 6.51217
2 -4.02093 -2.48362 6.66139
3 -0.173075 -4.82235 -6.33748
2 4.24649 2.29507 -6.63355
3 -3.94145 2.3945 -6.63402
3 6.79078 2.32324 -0.0229255
1 6.75997 -0.691921 2.1289
3 6.7721 0.719978 -2.17532
3 1.49405 7.06106 -0.0681992
1 2.65997 6.20588 2.22063
3 4.17326 5.3227 -2.24845
1 -5.32749 4.61296 -0.135719
3 -2.52038 6.0029 2.18136
1 -3.95414 5.43468 -2.31025
3 -6.69058 -2.41742 -0.20391
1 -6.71645 -0.736414 1.97954
1 -6.6088 1.0443 -2.29177
1 -1.11439 -6.78679 -0.184425
3 -4.14193 -5.38642 2.25002
1 -2.62666 -6.26412 -2.29519
2 5.32523 -4.73244 0.065009
2 3.85987 -5.40829 2.20186
3 2.61435 -6.25675 -2.29887
2 2.46045 -0.106601 6.72402
3 1.32773 -2.42877 6.63135
2 -1.17747 2.33747 6.68244
3 1.1759 -2.19719 -6.38579
2 -1.49557 -2.56503 -6.46325
3 1.27175 2.18757 -6.53008
1 5.5014 4.71281 0.0259864
2 5.46489 -1.53522 4.5708
3 5.58166 1.57224 -4.33319
2 -1.29792 6.91866 -0.0359321
3 1.22934 5.44531 4.44606
1 4.178 3.92747 -4.34164
2 -6.56943 2.32565 -0.121415
2 -1.26645 5.33767 4.29592
2 -3.99448 4.12954 -4.78004
3 -5.51784 -4.66216 0.0774668
2 -5.36068 -1.57456 4.20712
1 -5.27931 1.57234 -4.50226
2 1.3719 -6.86099 -0.128517
2 -4.04513 -4.02789 4.29373
1 6.84988 -2.4613 0.0378137
2 4.14067 -3.93302 4.49066
1 1.05754 -5.47362 -4.22206
1 1.47625 2.21278 6.57024
1 -1.42061 -2.36151 6.77551
2 -2.6757 -0.0682737 6.71816
2 2.66545 0.0176995 -6.3862
2 -2.69896 -0.0612091 -6.55143
2 -1.48291 2.2799 -6.60107
1 5.42371 2.95433 -2.23447
2 0.183789 6.19277 1.97269
3 -5.25751 2.99366 -2.31086
2 5.2885 -3.08003 2.35235
2 -0.0428909 -0.190747 6.56801
2 0.0273871 0.0542437 -6.29736
1 5.33023 1.52516 2.16713
3 1.29451 5.43343 -2.11168
2 -3.98106 3.74703 2.0543
1 -5.38618 -1.55739 -2.26643
1 -1.48822 -5.46203 2.12858
1 4.0698 -3.84542 -2.08362
1 4.073 0.864492 4.54516
2 1.34485 3.74339 -4.28865
2 -2.68852 2.95861 4.23935
3 -4.17937 -0.861279 -4.44844
2 -1.40241 -4.07357 4.49313
1 2.62755 -3.15323 -4.15672
3 4.13314 3.88932 2.26719
2 -1.38087 5.33195 -2.26665
3 -5.46876 1.48206 2.22969
2 -4.14859 -3.85793 -2.15676
1 1.15375 -5.40888 2.15355
2 5.40384 -1.54604 -2.01764
3 2.80865 3.20599 4.43836
1 -1.34682 3.91526 -4.54277
1 -4.03535 0.683906 4.35591
2 -2.82938 -3.08279 -4.33028
2 1.2406 -3.93716 4.40597
1 4.14985 -0.829572 -4.27367
2 10.8578 0.0119522 0.038268
3 5.53676 9.19278 0.0442028
1 -5.22152 9.38897 -0.0929762
1 -5.50644 -9.19381 -0.148875
1 5.43336 -9.25334 0.046763
1 5.27589 -3.21712 8.89582
2 -5.36716 -3.23765 8.76002
2 -0.14447 -6.08412 -8.72309
3 5.42985 3.06786 -8.72048
1 -5.41708 3.2318 -8.76027
3 9.44141 2.247 0.0490644
2 9.32771 -0.743958 2.2871
2 9.4164 0.820023 -2.26086
1 2.67287 9.41325 -0.109977
1 4.14787 8.5531 2.19869
2 5.45467 7.61526 -2.12001
2 -6.66972 6.82762 -0.258749
1 -3.87121 8.33807 2.18164
1 -9.38726 -2.2815 -0.107092
2 -9.39857 -0.62 1.92182
3 -2.72033 -9.28576 -0.0193157
2 -5.38577 -7.57188 2.10721
3 -3.89879 -8.48839 -2.20438
1 6.62865 -7.04598 -0.0505158
3 5.44179 -7.73941 2.21282
2 3.91523 -8.42483 -2.35427
2 3.94898 -0.778647 8.82292
3 2.67335 -3.10994 8.7341
2 -1.19506 3.7885 8.73722
2 1.27147 -3.80909 -8.44094
1 -1.47876 -3.9572 -8.55067
2 2.70041 3.0058 -8.70682
2 8.36334 4.4602 -0.000105196
1 8.11854 -1.55233 4.58167
3 8.13881 1.39382 -4.40365
2 -0.026114 9.4219 -0.0513029
1 2.72302 7.90006 4.34336
2 5.56062 6.03736 -4.36901
3 -7.9945 4.61884 0.0135126
3 -2.45622 7.61083 4.34234
3 -5.2768 6.35987 -4.34556
3 -7.98881 -4.57214 -0.0848034
3 -8.01252 -1.46061 4.29839
3 -7.97397 1.55059 -4.37481
3 0.0389311 -9.25684 -0.114134
2 -5.37636 -6.12625 4.49224
1 -2.68239 -7.73826 -4.38058
2 7.98205 -4.80098 0.0224965
2 5.4028 -6.28293 4.43551
2 2.55264 -7.57789 -4.48053
2 2.60276 1.69467 8.85585
3 0.091785 -3.10795 8.80268
1 -2.43532 1.41654 8.74613
2 2.63007 -1.46964 -8.612
2 -2.89084 -1.59313 -8.82267
3 -0.120391 3.12933 -8.75623
2 6.81909 6.9404 0.119886
1 6.73152 -2.49384 6.6962
3 6.79553 2.40486 -6.65477
2 -2.75907 9.29073 -0.179515
1 1.17213 6.8711 6.58288
2 5.5983 4.6477 -6.72051
2 -9.28889 2.04015 -0.0717856
2 -1.3521 7.12901 6.5193
2 -6.70389 -6.88081 -0.0268963
3 -6.75926 -2.37483 6.57866
1 -6.6686 2.36463 -6.61789
3 2.75915 -9.23633 0.0316301
3 -5.54197 -4.67812 6.54391
3 -1.46072 -7.10815 -6.72245
1 9.49883 -2.40198 0.02816
3 5.41356 -4.86927 6.69081
1 1.25992 -6.87807 -6.57798
3 1.47969 3.91963 8.79999
2 -2.64035 -3.22229 8.84277
3 -3.84397 -0.926284 8.62641
1 3.92455 0.897605 -8.62681
2 -4.1132 1.03452 -8.83686
1 -2.77833 3.18378 -8.88054
3 7.99782 2.95014 -2.13229
2 1.32282 8.46243 2.13456
3 -6.58714 5.1929 -2.31392
2 -7.99438 -3.00281 2.08395
3 -1.3559 -8.57143 -2.20933
1 6.61379 -5.39921 2.32793
3 -0.271371 -1.54865 -8.55453
2 6.96057 3.68202 -4.3637
2 0.0102721 7.6738 4.43897
3 -6.6482 3.80517 -4.33412
2 -6.78031 -3.8669 4.30973
2 -0.180879 -7.8084 -4.55925
3 6.6275 -3.88459 4.48922
1 -0.768599 -0.664276 8.87073
2 -1.39665 0.85041 -8.81372
3 8.1057 1.60629 2.20225
3 2.66342 7.70205 -2.11554
3 -5.27488 6.1971 2.04407
2 -2.80491 -7.76314 2.21583
1 5.39728 -6.24846 -2.21068
3 6.74947 0.715212 4.40522
2 2.58366 6.19122 -4.26143
2 -3.90124 5.35418 4.27968
3 -2.69185 -6.3442 4.43134
2 4.02866 -5.37178 -4.31688
3 5.29044 -0.12589 6.63533
1 2.67274 4.49609 -6.50341
2 -2.53079 4.62453 6.55762
3 -5.35791 -0.068338 -6.85054
2 -2.6698 -4.74808 6.72677
2 2.61013 -4.5226 -6.39697
1 6.85648 5.23935 -2.18773
2 -1.35707 8.36754 2.03106
2 -6.75834 -5.41284 2.14464
2 1.18435 -8.45183 -2.3426
1 8.07997 -3.18165 2.31581
1 1.1358 0.808602 -8.74736
2 6.8408 4.00325 2.12182
2 -6.60397 3.80515 2.1475
3 -6.66962 -3.82769 -2.11339
1 -0.00666397 -7.83891 2.09141
3 6.78841 -4.00505 -2.05717
2 5.5564 3.09684 4.47947
1 0.0703001 6.17823 -4.36218
3 -5.2911 3.08483 4.31407
3 -5.42708 -3.12571 -4.38125
2 -0.153275 -6.42428 4.35157
1 4.1031 2.38523 6.72743
2 0.0668605 4.54943 -6.67788
3 -3.77988 2.19838 6.41186
2 -4.15245 -2.3275 -6.53428
2 0.00242154 -4.75583 6.61209
1 3.96329 -2.24978 -6.51145
2 5.37209 6.12795 2.20952
1 -2.41274 7.69475 -2.33878
2 -8.15545 1.53666 2.05434
1 -5.55303 -6.24617 -2.1799
2 2.67916 -7.82274 2.10352
2 8.06788 -1.78002 -2.17114
3 3.95389 5.4755 4.38744
3 -2.62116 6.27843 -4.45979
3 -6.68915 0.645378 4.28669
3 -3.98033 -5.4903 -4.25913
2 2.70453 -6.32776 4.47233
2 6.88801 -0.60096 -4.34134
1 2.57932 4.71204 6.55547
3 -2.53047 4.72099 -6.77892
3 -5.5057 -0.0740109 6.45446
1 2.67637 -4.70932 6.47327
1 5.51964 -0.0389413 -6.53882
1 6.89946 11.514 -0.0840985
2 -6.70044 11.7248 -0.00829501
2 -13.5101 0.101998 0.103518
2 -6.61456 -11.5113 0.0618259
2 6.55148 -11.6112 0.093529
1 6.66467 -3.93184 11.0266
2 0.0138969 7.62686 11.0233
2 -6.5295 -3.90201 10.974
3 0.233604 -7.83775 -10.9235
3 6.74315 3.88119 -10.9114
3 -6.7335 3.82828 -10.9839
2 12.173 2.4385 -0.0723751
1 12.0479 -0.830412 2.32238
2 12.0383 0.897133 -2.05879
2 4.10791 11.5847 -0.00312014
2 5.63737 10.7082 2.09461
1 6.77336 10.0365 -2.33035
1 -7.76004 9.22074 -0.122866
3 -5.2522 10.7457 2.19582
3 -12.1102 -2.4041 -0.121003
1 -12.0871 -0.574359 2.13337
3 -11.9773 0.748925 -2.1248
2 -3.88274 -11.5682 0.161949
1 -6.70521 -9.92082 2.15993
1 -5.40223 -10.7478 -2.33641
2 7.91718 -9.47467 0.207016
2 6.71787 -10.1565 2.26381
2 5.4222 -10.5808 -2.3757
3 5.29588 -1.46991 11.1235
2 3.94778 -3.74922 10.8672
2 -1.34565 5.39443 10.9562
2 1.27178 -5.42906 -10.9207
2 -1.31708 -5.46114 -11.0944
1 4.19611 3.96233 -10.8492
3 10.9453 4.66592 0.0362874
2 10.8849 -1.60014 4.5793
3 10.6581 1.61397 -4.45289
3 1.46006 11.6652 -0.136914
2 3.97638 10.1042 4.36996
2 6.73121 8.53078 -4.59594
3 -9.31247 6.89755 -0.118213
1 -3.88501 9.88781 4.46918
1 -6.54024 8.85493 -3.90132
3 -10.6458 -4.63202 -0.0402686
2 -10.5914 -1.44954 4.26439
2 -10.5488 1.40313 -4.24522
2 -1.50157 -11.5237 -0.0301573
2 -6.7333 -8.46655 4.3842
2 -4.04054 -10.0723 -4.3508
2 9.31669 -7.09664 -0.056453
3 6.83998 -8.37667 4.43267
3 4.2155 -9.92702 -4.44402
2 4.13558 0.84954 11.2278
2 1.36324 -3.69662 11.021
2 -2.54709 2.98043 10.9025
2 2.78428 -3.07943 -10.8962
2 -2.68888 -3.11447 -10.8965
2 1.40856 3.73003 -11.0014
3 9.44756 6.80212 0.12125
2 9.44573 -2.38787 6.73976
2 9.35503 2.29141 -6.69732
1 -1.30437 11.6509 -0.212946
3 2.63991 9.56634 6.59383
2 6.77513 7.07222 -6.68407
1 -10.6398 4.66264 -0.00099384
1 -6.68406 6.91914 -6.50774
2 -9.43082 -6.91534 -0.130526
3 -9.33336 -2.36128 6.4257
2 -9.35265 2.32052 -6.55226
3 1.13814 -11.6223 -0.063738
3 -6.88387 -7.04903 6.51068
2 -2.65339 -9.28595 -6.4614
2 10.7731 -4.67709 0.0634399
2 6.81894 -6.97671 6.63842
1 2.66846 -9.22792 -6.45189
3 2.6446 3.11791 11.2162
3 -1.18656 -3.81712 11.0171
1 -3.85205 0.712117 10.9714
3 3.88823 -0.702945 -10.88
2 -4.11246 -0.672321 -10.9172
2 -1.25905 3.73389 -11.0554
2 8.18724 9.19693 0.162412
2 8.01005 -3.13921 8.72381
3 7.8958 3.33636 -8.74049
3 -4.00354 11.7551 -0.141546
2 1.43191 8.61702 8.72648
3 6.83978 5.38569 -8.8517
2 -11.9326 2.35886 0.0891363
1 -1.26635 8.3872 8.66586
1 -6.78448 5.51324 -8.89939
2 -8.08498 -9.28395 0.047497
1 -8.0816 -3.06344 8.62494
3 -8.2004 3.06538 -8.78446
2 3.89643 -11.5541 -0.149302
3 -6.55044 -5.50764 8.59646
2 -1.44477 -8.53538 -8.80133
3 12.0135 -2.46821 0.119929
1 6.73172 -5.57665 8.77262
2 1.31225 -8.43418 -8.60338
2 1.47742 5.47923 10.9308
1 -3.8671 -3.77098 10.9834
3 -5.28237 -1.54421 10.9941
3 5.34665 1.47909 -10.913
3 -5.40973 1.44357 -11.0899
2 -4.04455 3.93492 -10.9041
3 10.6948 3.28084 -2.07506
3 2.69067 10.8532 2.14887
2 -8.10936 7.6792 -2.2722
2 -10.7043 -3.04463 1.95696
1 -2.70053 -10.6247 -2.18304
2 7.97443 -7.86454 2.19972
2 2.66947 -1.35508 11.1627
1 -0.0923955 -3.17472 -11.0219
2 9.50459 3.76981 -4.175
2 1.36446 10.1147 4.36797
2 -7.81958 6.30522 -4.30491
3 -9.39819 -3.77673 4.31916
2 -1.41515 -10.0176 -4.47052
3 7.97134 -6.2086 4.589
2 0.0273335 -1.45362 11.0541
2 -1.38422 -0.934761 -10.9061
2 8.24066 4.76253 -6.53275
3 0.120021 9.40612 6.43868
1 -8.16067 4.56969 -6.52341
2 -8.0881 -4.66207 6.42695
3 8.14122 -4.80227 6.54181
2 -2.6709 -1.64618 10.895
1 -2.66408 1.5186 -11.0479
1 10.7649 1.50492 2.21308
2 3.97106 9.99951 -2.18079
2 -6.56359 8.40248 1.91281
3 -10.5857 -1.79098 -2.28704
2 -4.10271 -10.0873 2.20483
1 9.49703 0.688311 4.54089
2 3.94754 8.5329 -4.24196
1 -5.22618 7.5574 4.40703
2 -9.12838 -0.710981 -4.22211
2 -4.09123 -8.54316 4.4925
2 5.43316 -7.5651 -4.3083
1 7.99955 0.0156648 6.70654
1 3.96586 6.87021 -6.43877
3 -3.83182 6.94399 6.53561
1 -8.04911 -0.0110946 -6.67806
2 -4.15405 -7.12339 6.6249
2 3.98329 -7.05233 -6.5291
3 6.65943 -0.954556 8.77496
2 4.15341 5.32063 -8.80475
1 -2.39224 6.19592 8.76803
1 -6.70886 0.835886 -8.79863
3 -4.02664 -5.43463 8.76719
2 2.61728 -6.17381 -8.7114
3 9.53871 5.45636 -2.0842
1 0.0227428 10.8456 2.05478
2 -9.29757 5.1702 -2.12498
3 -9.28552 -5.42991 2.21687
2 -0.104346 -10.8448 -2.19081
1 9.221 -5.56186 2.31601
3 1.40921 1.05911 11.0499
1 1.27523 -0.878668 -10.9244
2 8.21081 6.2423 -4.26764
3 -1.2382 9.9448 4.19664
1 -9.31787 3.82178 -4.32951
2 -8.0185 -6.12808 4.44785
2 1.28631 -10.086 -4.32059
3 9.30477 -3.91974 4.50668
3 -1.17684 0.822679 11.0997
3 0.00940049 1.44517 -11.1738
1 9.63973 3.9094 2.19482
3 1.35059 10.2126 -2.2866
2 -8.15598 6.14891 2.098
3 -9.27037 -3.86273 -2.13014
2 -1.34921 -10.0681 2.08597
1 8.07082 -6.09727 -2.27393
1 8.07809 3.15304 4.38101
3 1.30619 8.67709 -4.42714
2 -6.78182 5.39029 4.23099
3 -7.93092 -2.99804 -4.30937
2 -1.45467 -8.62089 4.40569
3 6.82284 -5.41331 -4.44936
2 6.7577 2.25384 6.54355
1 1.37014 6.96346 -6.66465
1 -5.08497 4.53896 6.43723
2 -6.72347 -2.19636 -6.54212
1 -1.36401 -7.01562 6.65928
2 5.2884 -4.29843 -6.44676
2 5.34323 1.48882 8.82605
3 1.5346 5.33822 -8.78169
3 -3.82268 3.88951 8.84194
3 -1.25749 -5.36803 8.87691
2 3.93655 -3.87312 -8.65029
2 8.0684 7.7837 -2.05559
2 -2.55737 10.8576 1.89531
2 -10.7869 3.01653 -2.13738
1 -8.18151 -7.71231 2.20215
3 2.73358 -10.8827 -2.26692
1 10.6656 -3.19864 2.50305
3 0.125428 3.31404 10.9082
1 2.69985 1.60792 -10.9501
1 8.18799 6.26206 2.40525
2 -1.44808 10.0776 -2.47912
2 -9.29641 3.80602 2.16991
2 -8.05796 -6.1018 -2.20812
3 1.2135 -10.1336 2.24054
1 9.50432 -3.72214 -2.53563
2 6.58951 5.43367 4.33191
1 -1.35765 8.58666 -4.52067
2 -8.04207 2.97788 4.31587
3 -6.55185 -5.33498 -4.50773
1 1.18169 -8.6769 4.43108
2 7.90894 -3.03908 -4.36063
2 5.50721 4.64139 6.59168
2 -1.26745 7.05553 -6.51459
2 -6.58158 2.1238 6.49704
3 -5.28013 -4.67585 -6.61506
2 1.35748 -7.15446 6.6356
1 4.03443 3.9144 8.98943
1 -1.26449 5.37596 -9.00295
1 -5.27113 1.44638 8.70304
2 -4.05053 -3.96947 -8.69886
2 1.28482 -5.4301 8.87232
2 5.44034 -1.53359 -8.68479
2 6.79137 8.41571 2.19152
2 -4.31802 10.1281 -2.2378
3 -10.7036 1.58565 2.32832
2 3.83742 -10.137 2.18998
3 10.8442 -1.4165 -2.10614
2 -3.91749 8.60239 -4.33216
2 -9.31955 0.76574 4.34816
3 -5.2234 -7.65414 -4.49402
3 4.01938 -8.66733 4.5403
3 9.36227 -0.771363 -4.28298
3 3.9178 6.91734 6.51182
2 -4.01343 6.94142 -6.54076
3 -8.06285 -0.0726554 6.54381
3 -4.01364 -6.9423 -6.46788
2 4.06516 -7.06647 6.57124
3 8.14902 -0.0664163 -6.50041
2 2.57767 6.24123 8.56916
3 -4.01401 5.61995 -9.01859
1 -6.65113 -0.837345 8.65673
3 -2.62732 -6.25494 -8.88476
2 3.87233 -5.33672 8.76844
2 16.0184 0.159583 0.113836
1 8.23038 14.0217 -0.0395495
1 -8.00895 13.8806 -0.210284
1 -16.2433 0.168091 0.262827
1 -8.10833 -14.0261 -0.0224712
1 7.92059 -14.0784 0.162118
1 8.09684 -4.5143 13.3002
3 0.029038 9.08291 13.2059
1 -7.88043 -4.66136 13.0272
1 -0.0486381 -9.3404 -13.1516
1 8.10667 4.75073 -13.1872
2 -8.26286 4.86879 -12.7593
3 14.8895 2.47211 0.0944117
2 14.7193 -0.731977 2.23884
2 14.7004 0.921398 -2.08671
2 5.26667 13.9438 0.0557354
3 6.9174 13.1859 2.00759
3 8.22101 12.4681 -2.31476
1 -9.4734 11.4766 0.0316055
2 -6.76522 13.1799 2.2573
2 -8.02538 12.4127 -2.34667
2 -14.7137 -2.28485 0.139257
3 -14.7971 -0.716759 2.25188
2 -14.761 0.841908 -2.08509
1 -5.28602 -13.8212 -0.0660386
2 -8.36187 -12.43 2.05675
1 -6.85156 -13.1833 -2.25356
1 9.33322 -11.7865 0.293962
2 8.11724 -12.6111 2.32654
2 6.64686 -13.1553 -2.11537
2 6.61944 -2.45354 13.2572
2 5.35222 -4.66966 13.3102
1 -1.21041 6.88149 13.3816
1 1.33231 -7.08433 -13.0093
1 -1.39711 -6.84231 -13.5056
1 5.40148 4.77235 -13.089
3 13.6661 4.63577 0.0246121
3 13.4902 -1.70979 4.40133
1 13.4025 1.6837 -4.31748
1 5.65025 12.5145 4.39893
1 7.97709 10.8939 -4.5716
2 -10.8882 8.99504 -0.0615846
1 -5.31812 12.2581 4.42327
2 -7.9021 10.835 -4.24117
2 -13.2105 -4.69403 -0.130256
2 -13.441 -1.43345 4.29454
2 -13.25 1.57032 -4.2428
3 -2.6448 -13.8615 -0.124102
2 -8.14323 -10.9364 4.42158
1 -5.31967 -12.5145 -4.43031
3 10.5834 -9.33578 0.056413
2 8.06262 -10.878 4.42604
2 5.33458 -12.5049 -4.3813
3 5.58788 -0.100503 13.2607
1 2.61034 -4.60408 13.2422
1 2.75908 -4.79574 -13.169
3 -2.59846 -4.62913 -13.1799
2 2.95045 4.66231 -13.3306
1 12.1734 6.94895 0.0743321
1 12.1589 -2.13169 6.72074
2 12.0368 2.35254 -6.59952
3 4.18195 11.6903 6.56582
2 8.1531 9.29113 -6.61625
2 -3.80857 11.3366 6.38618
1 -8.11581 9.3275 -6.57249
3 -12.1328 -6.94383 0.093438
1 -11.933 -2.37741 6.48679
2 -11.963 2.23416 -6.42762
2 0.0958955 -14.0179 -0.140041
3 -8.22772 -9.28237 6.66714
2 12.0051 -7.07593 0.135369
3 3.9421 -11.4631 -6.3029
1 4.05548 2.22474 13.3525
3 0.000104297 -4.71079 13.2151
1 -3.81618 2.26614 13.2485
1 4.0356 -2.2998 -13.1796
2 -4.11045 -2.33511 -13.1966
2 0.0624043 4.5752 -13.2314
1 10.7977 9.2789 -0.00488137
3 10.7105 -2.98902 8.87522
2 10.6711 3.04118 -8.69296
2 -2.68493 13.9908 0.0898942
3 2.72628 10.9461 8.8115
2 8.1928 7.65342 -8.82839
1 -13.4439 4.83243 -0.00922273
3 -2.52216 10.5911 8.78813
2 -8.09073 7.66375 -8.70754
2 -10.7688 -9.28168 -0.0832565
3 -10.9108 -3.07314 8.72346
3 -10.8387 3.11427 -8.6784
1 2.56052 -13.8407 0.00273707
1 -7.99844 -7.76313 8.8379
2 -2.87062 -10.7916 -8.79941
2 13.4412 -4.79284 -0.0154112
1 8.05905 -7.91675 8.81225
3 2.6133 -10.7707 -8.94311
2 2.65803 4.46807 13.31
1 -2.4776 -4.71072 13.1256
2 -5.10915 0.0428384 13.1618
2 5.36786 0.00359805 -13.178
3 -5.38643 -0.0739239 -13.2021
2 -2.90076 4.72151 -13.3993
2 9.61941 11.5545 0.0641516
2 9.24114 -3.98693 10.8093
2 -5.38051 14.0226 0.0234572
3 1.32584 10.0737 10.9868
3 8.0887 6.22181 -10.9373
2 -14.735 2.59643 0.145328
2 -1.22583 10.0663 10.9227
1 -9.36227 -11.7112 -0.102963
2 -9.27753 -3.94602 10.7205
3 -9.57362 3.70581 -10.7979
2 5.30097 -14.1399 0.00602668
3 -8.09441 -6.1889 11.0658
3 -1.18744 -10.1376 -10.9029
2 14.6069 -2.25015 0.107735
3 8.05673 -6.27787 11.0611
2 1.36525 -10.0654 -11.0373
2 1.65593 7.01092 13.1541
2 -5.18976 -4.65416 13.0944
2 -6.56353 -2.36928 13.2905
2 6.62742 2.39272 -13.2502
1 -6.87546 2.26101 -13.1268
1 -5.43526 4.70053 -13.2088
1 4.18156 13.0219 2.03626
2 -9.44089 9.99531 -2.05191
2 -13.3667 -2.98596 2.2619
2 -3.96282 -13.0928 -2.15115
2 9.51315 -10.2349 2.39123
1 3.99846 -2.15652 13.1161
3 0.139558 -4.82671 -13.1873
2 12.0677 3.76639 -4.27586
1 2.89353 12.3604 4.37207
2 -9.45611 8.63211 -4.33139
2 -12.0213 -3.77392 4.38554
3 -2.57029 -12.3209 -4.38708
2 9.32399 -8.43285 4.55677
2 1.28412 -2.502 13.359
2 -1.46169 -2.39674 -13.2824
3 1.50102 11.5983 6.44452
1 -9.41516 7.06666 -6.49384
2 -10.6129 -4.6193 6.64065
2 -1.4178 -11.5956 -6.61283
2 9.52538 -6.9471 6.8293
1 -1.34983 -2.31695 13.2302
2 -2.73712 0.263688 -13.2953
3 9.41962 5.41728 -8.63455
2 0.0231189 10.7429 8.63558
2 -9.38387 5.43682 -8.89789
3 -9.33607 -5.45901 8.80157
1 -0.015349 -10.5813 -8.63668
2 -3.93787 -2.23451 13.1571
3 -4.13059 2.3839 -13.197
2 13.3842 1.65007 2.20776
1 5.40429 12.3852 -2.25774
1 -7.94289 10.7127 2.15753
2 -13.3881 -1.40677 -2.19587
3 -5.44411 -12.327 2.27755
1 7.99892 -10.859 -2.21959
1 12.2182 0.690677 4.67932
1 5.3295 10.9372 -4.39781
3 -6.67834 9.72973 4.21522
2 -11.9536 -0.862117 -4.4432
2 -5.45372 -10.9538 4.57122
2 6.61909 -10.1013 -4.68143
3 10.7013 -0.0456405 6.69987
1 5.3791 9.23772 -6.6271
1 -5.32043 9.15279 6.57614
3 -10.7043 -0.0247698 -6.55452
3 -5.67415 -9.39884 6.81684
1 9.43739 -0.730687 8.84578
2 5.46319 7.6225 -8.93698
2 -3.88563 8.43973 8.63743
2 -9.50234 0.811296 -8.83991
2 -5.50042 -7.80028 8.82771
1 4.27097 -8.44655 -8.41386
2 7.90265 -1.68779 10.9457
3 5.52519 6.26421 -11.0929
2 -2.50569 7.76107 11.0981
3 -8.22208 1.68474 -10.9642
3 -5.41171 -6.12861 10.9418
2 2.85799 -8.03858 -10.879
2 12.2633 5.3728 -2.04827
2 1.48446 13.0687 2.12555
3 -10.7003 7.63288 -2.33669
1 -12.1153 -5.42714 2.18899
2 -1.30344 -13.1633 -2.23316
3 10.6117 -7.93771 2.23545
1 1.32331 -2.26696 -13.2364
2 10.8749 6.19625 -4.25927
2 0.0107105 12.3291 4.22411
2 -10.7507 6.19828 -4.37389
1 -10.7478 -6.19492 4.4517
2 0.00718976 -12.3467 -4.44253
2 10.7462 -6.16078 4.44156
3 0.0457778 -0.126912 13.2408
1 -0.190445 -0.108272 -13.2094
3 9.53185 7.09297 -6.47867
3 -1.14027 11.4743 6.36105
2 -10.7472 4.60726 -6.59664
2 -9.37587 -6.95867 6.65992
2 1.46893 -11.6641 -6.79036
3 10.7137 -4.69435 6.79409
3 -2.53015 0.0218931 13.0226
1 -1.48538 2.37883 -13.3902
2 12.2814 3.97139 2.18017
2 2.56637 12.4082 -2.23112
3 -9.27666 8.53461 1.94317
3 -11.8846 -3.80941 -2.28732
2 -2.70909 -12.4358 2.18328
1 9.44248 -8.65985 -2.06222
1 10.888 3.24425 4.57366
3 2.73423 10.8285 -4.4272
2 -8.09926 7.65123 4.27703
2 -2.76246 -11.0176 4.34115
3 8.0941 -7.80622 -4.20194
3 9.44284 2.35698 6.68166
2 2.7426 9.2491 -6.57579
2 -6.5567 6.91144 6.56417
2 -9.25202 -2.27767 -6.42484
3 -2.82446 -9.36254 6.53716
1 6.72637 -7.41539 -6.33352
1 7.92422 1.46306 8.75486
1 2.74352 7.59201 -8.85064
1 -5.42367 6.18434 8.89345
3 -7.78043 -1.52372 -8.84821
3 -2.7015 -7.75055 8.78473
2 5.50626 -6.14646 -8.51201
2 6.74737 0.654714 10.9162
2 -3.93034 5.40244 10.8923
2 -6.84836 -0.606029 -11.032
2 -2.69346 -6.30012 10.8049
2 4.11651 -5.43072 -10.8667
2 10.8511 7.6897 -2.08567
1 -1.28903 13.1439 1.95019
1 -11.9673 5.42414 -2.23613
2 -10.8027 -7.68468 2.13434
2 1.2962 -13.0439 -2.2433
3 11.9821 -5.5784 2.28138
2 1.40101 2.2198 13.228
2 2.6438 -0.0405214 -13.0929
1 9.47992 8.62519 -4.49862
2 -2.46243 12.2424 4.2892
2 -9.39855 -8.59014 4.35691
2 2.66655 -12.4019 -4.37164
2 12.137 -4.0426 4.63209
1 -1.24687 2.31363 13.1775
2 1.26087 2.20251 -13.2019
2 10.8379 6.15861 2.25513
3 -0.0533589 12.419 -2.33919
1 -10.6865 6.14286 2.24357
1 -10.7566 -6.04395 -2.15561
2 -0.133121 -12.4222 2.03237
3 10.6317 -6.16861 -2.13851
2 9.40875 5.62791 4.47494
3 0.111506 10.7986 -4.54556
3 -9.3627 5.22491 4.50111
2 -9.38792 -5.21288 -4.41436
2 -0.0605568 -11.0596 4.37175
3 9.33308 -5.36725 -4.52105
2 8.12094 4.56339 6.71356
3 -0.0379447 9.32501 -6.64026
2 -7.95533 4.527 6.55931
2 -8.01705 -4.4764 -6.4478
2 -0.109858 -9.45398 6.60792
3 7.93905 -4.57401 -6.51306
1 6.69826 3.92165 8.92414
2 0.0819833 7.68795 -8.83164
2 -6.51678 3.84363 8.81752
2 -6.65122 -3.67727 -8.66483
2 -0.145332 -7.76496 8.83681
2 6.74483 -3.83599 -8.67385
3 5.52788 3.28246 11.1585
2 0.172976 6.09612 -11.1014
1 -5.31731 2.99559 11.164
2 -5.4026 -2.88811 -10.8749
1 -0.135288 -6.14892 11.0109
2 5.38904 -2.97004 -10.9255
2 9.54225 10.1696 -2.3837
3 -4.19647 13.1695 2.08232
2 -13.344 3.10852 -1.88282
3 -9.45848 -10.1402 2.18939
2 4.1072 -13.2176 -2.33551
2 13.3883 -3.17019 2.28347
2 0.207193 4.57472 13.1168
1 4.10709 2.29648 -13.0842
3 9.41588 8.51742 2.32262
2 -2.69605 12.2552 -2.34666
3 -12.1217 3.98701 2.10169
3 -9.32608 -8.52012 -2.11925
2 2.69883 -12.2745 2.03964
1 12.1595 -3.84805 -2.01612
1 7.94364 7.88019 4.58285
1 -10.7113 3.03066 4.32537
1 -7.84483 -7.68177 -4.3074
2 2.54198 -10.9789 4.46742
1 6.54302 6.93301 6.53022
2 -2.65055 9.4241 -6.7055
2 -9.22627 2.17592 6.56992
2 -6.77598 -6.8822 -6.55821
1 2.45755 -9.48074 6.73881
1 9.34267 -2.40039 -6.3175
3 5.11471 6.15473 8.72629
2 -2.56517 7.77976 -8.87519
2 -7.84975 1.41175 8.63198
2 -5.33271 -6.31545 -8.50193
2 2.71889 -7.88986 8.7873
1 7.81041 -1.63168 -8.67437
1 4.12109 5.54845 11.2409
2 -2.795 6.05199 -11.0741
2 -6.4423 0.776749 11.0998
2 -3.86384 -5.45859 -11.0314
2 2.7248 -6.12415 11.0911
3 6.48531 -0.600698 -11.0028
3 8.24734 10.7964 2.23849
3 -5.28583 12.5841 -2.36728
2 -13.4352 1.7177 2.48529
2 -8.07443 -10.8019 -2.16228
3 5.24683 -12.3233 2.1544
2 13.3998 -1.63357 -2.03182
2 6.81617 10.1531 4.383
2 -5.35555 11.1214 -4.39875
3 -11.9984 0.777759 4.35828
3 -6.62384 -10.2615 -4.43205
1 5.36364 -10.7972 4.42601
2 12.0415 -0.66242 -4.31171
1 5.44997 9.25646 6.57545
1 -5.41571 9.24931 -6.41418
3 -10.7867 -0.12297 6.60312
2 -5.33336 -9.30109 -6.61607
1 5.29865 -9.40094 6.73302
2 10.6912 0.0131445 -6.45465
2 4.0294 8.56762 8.7169
2 -5.43243 7.82202 -8.60335
3 -9.44137 -0.751356 8.80953
3 5.33013 -7.73 8.92069
1 9.01963 0.751771 -8.71381
2 2.73728 7.86229 10.9579
2 -5.52187 6.12668 -10.9237
2 -7.95234 -1.70011 10.8863
3 -2.51957 -7.74996 -11.0672
2 5.44746 -6.09818 11.2333
2 7.94978 1.76369 -11.0093
2 18.6722 0.0516285 0.00390721
3 9.3823 16.347 -0.0393913
3 -9.38629 16.3403 0.027458
2 -18.9788 0.131062 0.250759
3 -9.40107 -16.241 -0.052549
1 9.30558 -16.4982 -0.066008
1 9.42122 -5.56743 15.4474
1 0.0791352 10.827 15.2377
3 -9.39408 -5.29324 15.2735
2 -0.00459359 -10.6674 -15.2377
1 9.39685 5.45838 -15.3411
1 -9.58056 5.44898 -15.014
1 17.6846 2.28548 -0.502665
2 17.3246 -0.590992 2.28837
2 6.7632 16.3314 -0.129322
2 8.15181 15.587 2.16446
2 9.39023 14.9269 -2.36188
1 -10.6415 13.8996 -0.164282
1 -7.98275 15.4377 2.24923
2 -9.3573 14.8975 -2.42605
2 -17.3574 -2.02528 0.205506
3 -17.7858 -0.580619 2.39723
3 -17.5631 0.855889 -2.07971
3 -6.68267 -16.2086 -0.0796767
3 -9.54711 -14.6163 2.16552
2 -8.06502 -15.4937 -2.26136
3 10.6501 -14.1085 0.0281712
1 9.47511 -15.0652 2.21971
1 7.83927 -15.6511 -2.25374
1 7.89847 -3.35489 15.7189
2 6.70072 -5.60561 15.5526
1 -1.37132 8.51546 15.3648
3 -1.39569 -8.6029 -15.4616
1 6.7489 5.41445 -15.4178
3 16.2922 4.62075 0.117786
2 16.2638 -1.63375 4.55888
3 16.0381 1.60027 -4.36418
1 4.07103 16.1684 -0.0505633
2 6.734 14.8062 4.05835
1 9.39249 13.241 -4.59742
2 -12.1475 11.4542 0.017551
1 -6.58878 14.6021 4.33159
2 -9.47942 13.2249 -4.36914
2 -16.0779 -4.6262 -0.04716
1 -16.2091 -1.54461 4.34564
1 -16.1758 1.71911 -4.20615
1 -4.00079 -16.1525 -0.147711
2 -9.57119 -13.1899 4.467
3 -6.73901 -14.8219 -4.44313
2 12.0054 -11.8526 0.128391
2 9.50868 -13.329 4.44101
3 6.64747 -14.7962 -4.38928
3 6.77243 -0.963841 15.45
1 4.01106 -5.64151 15.4147
3 -2.78839 6.14796 15.3661
1 2.41384 -6.47224 -15.298
1 3.91352 5.2414 -15.5393
2 14.8076 7.08268 0.198363
1 14.8433 -2.28619 6.59381
1 14.7668 2.5437 -6.45041
2 1.58486 15.8872 -0.147214
1 5.4708 14.0228 6.65291
3 -13.4649 9.2086 -0.00253414
2 -5.39341 13.8723 6.46236
2 -9.41505 11.7032 -6.61258
2 -14.9239 -7.11678 -0.0916967
1 -14.6554 2.41853 -6.47524
3 -1.36507 -16.246 -0.223167
2 -9.5033 -11.7174 6.71882
3 -5.4021 -14.0407 -6.61146
2 13.4191 -9.26614 0.170004
2 9.27298 -11.6473 6.65512
2 5.48727 1.40463 15.4569
1 1.29906 -5.52581 15.5503
2 -3.98444 3.53786 15.4219
3 4.14569 -3.85427 -15.4047
3 -4.10871 -3.8801 -15.3903
1 1.30162 5.29676 -15.505
3 13.4478 9.30743 0.0234895
1 13.5185 -2.91139 8.80509
3 13.4937 3.17864 -8.68483
3 -1.20891 16.215 -0.10969
1 4.17325 13.2211 8.85062
2 9.29154 10.0954 -8.82256
2 -14.837 7.07328 -0.0572713
3 -3.91825 12.9992 8.48956
3 -9.44006 10.1029 -8.74671
2 -13.4448 -9.38875 -0.128864
2 -13.3848 -3.09391 8.70016
2 -13.5771 3.12702 -8.74437
3 1.34481 -16.1899 -0.00369057
2 -9.64514 -10.1974 8.81629
3 -4.1296 -13.1826 -8.79011
1 14.879 -6.99614 0.0835506
3 9.32476 -10.1238 8.80551
3 4.00098 -13.2374 -8.979
2 3.9432 3.59186 15.5605
3 -1.37268 -5.40674 15.4133
1 -5.215 1.40563 15.3788
3 5.29637 -1.50401 -15.3549
3 -5.3584 -1.49485 -15.5342
1 -1.37597 5.44551 -15.6613
3 12.196 11.7362 0.0658408
1 12.0518 -3.87951 10.9363
1 11.9604 3.862 -10.8262
1 -3.8636 16.3602 -0.00342245
3 2.79189 12.5046 10.8775
3 9.35924 8.50279 -10.8667
1 -16.2382 4.77021 0.060037
2 -2.7976 12.1889 10.7313
3 -9.42511 8.36622 -10.8613
2 -12.0659 -3.88689 11.0598
2 -12.0876 3.85321 -10.8309
2 4.08082 -16.3374 -0.0773502
2 -9.38863 -8.46793 10.8184
1 -2.62195 -12.3079 -10.8372
2 16.1343 -4.76356 0.0796283
1 9.47654 -8.6324 11.0493
2 2.80076 -12.4794 -11.1044
3 2.69594 6.06328 15.2697
1 -4.08551 -5.26037 15.292
1 -6.94926 -0.788946 15.4554
3 6.67315 0.944455 -15.4025
1 -6.78552 0.751445 -15.4291
2 -4.32937 5.47106 -15.6477
3 10.8619 13.9114 -0.0175483
1 10.7487 -4.69444 13.0192
2 10.586 4.66307 -13.0584
2 -6.74815 16.2553 -0.214296
2 9.36708 7.12013 -12.9573
1 -17.5597 2.39514 0.174172
3 -1.45584 11.5879 12.9853
3 -9.44686 7.18444 -12.9849
2 -10.9885 -14.1871 -0.16239
2 -10.4643 -4.43722 13.0827
2 6.75235 -16.2911 -0.0984537
2 -9.35438 -7.04365 13.1463
2 -1.38547 -11.687 -13.0993
3 17.4673 -2.47212 0.205907
2 9.49702 -7.13872 13.2178
3 1.47521 -11.7113 -13.2028
3 1.47528 8.50745 15.2367
1 -6.69543 -5.46798 15.3745
2 -7.98632 -3.11057 15.5518
3 8.15149 3.02864 -15.3901
1 -8.20952 2.96382 -15.3918
2 -6.99224 5.27268 -15.323
1 16.0303 3.29023 -2.30807
1 5.51687 15.4839 2.13546
2 -10.7556 12.4277 -2.1966
2 -16.1607 -3.01298 2.42492
2 -5.22047 -15.5523 -2.37591
3 10.7229 -12.5053 2.33303
2 -0.13768 -6.23354 -15.4809
2 14.6072 3.88384 -4.49714
1 4.05741 14.8166 4.40378
3 -10.63 10.8421 -4.43064
2 -14.7593 -3.85207 4.33875
3 -3.93172 -14.7065 -4.35102
2 10.8711 -10.9512 4.51843
1 2.9507 -3.26783 15.5833
1 -1.41902 -3.99346 -15.3665
1 13.4526 4.83835 -6.48083
3 2.8062 13.9929 6.56478
1 -10.7538 9.2591 -6.64366
1 -13.3802 -4.63569 6.51972
1 -2.73424 -13.8709 -6.72567
1 10.9472 -9.52951 6.61067
2 0.0462777 -3.2172 15.6126
1 -2.69635 -1.60464 -15.396
1 12.1039 5.40181 -8.70921
2 1.38594 13.1459 8.76183
3 -10.8048 7.61941 -8.78761
2 -11.8614 -5.31978 8.77248
2 -1.39537 -13.2361 -8.77433
1 10.8141 -7.95377 8.88901
2 -2.67796 -3.07495 15.5987
1 -4.02277 0.840669 -15.5283
3 10.7407 6.15736 -10.8869
3 -0.069905 12.2639 10.8721
3 -10.7591 6.08004 -11.0864
3 -10.6181 -6.21167 11.0878
2 0.0953111 -12.3265 -11.1266
2 10.8626 -6.49372 11.1602
2 -5.26113 -2.92825 15.6028
1 -5.5193 3.17259 -15.3213
2 16.0606 1.67985 2.52131
1 6.67972 14.6998 -2.23337
3 -9.32106 13.0531 2.13715
2 -16.0259 -1.38736 -1.97283
1 -6.72223 -14.7619 2.24839
1 9.27553 -13.1919 -2.08455
2 14.7176 0.568565 4.48261
1 6.73871 13.2159 -4.58157
2 -8.02787 12.1198 4.28352
2 -14.7598 -0.689406 -4.36512
1 -6.89621 -13.1559 4.37011
1 7.88681 -12.2088 -4.46281
2 6.61333 11.6163 -6.66925
3 -6.72788 11.4642 6.41602
1 -13.3784 0.0841543 -6.42298
1 -6.97495 -11.6058 6.78878
2 6.75355 -11.5972 -6.66936
3 12.1403 -0.624212 8.87081
3 6.72963 9.97519 -8.7369
2 -5.30202 10.802 8.56915
2 -12.0248 0.788973 -8.72405
2 -6.83967 -10.1877 8.82163
1 5.39454 -10.8745 -8.94861
2 10.8154 -1.32864 10.9482
2 6.83488 8.51815 -11.1433