3997
 Atoms. Timestep: 6000
2 0.062423 -0.0811916 0.0522985
3 2.66594 0.00596358 -0.0190873
2 1.31365 2.24792 0.0146937
2 -1.42982 2.25124 -0.186215
1 -2.75184 -0.156226 -0.0994176
3 -1.30286 -2.50351 0.0994539
2 1.40013 -2.37241 0.00242006
2 1.34408 -0.787291 2.28289
2 0.0314616 1.56003 2.13891
2 -1.31487 -0.877875 2.28841
2 0.0475137 -1.46846 -2.36419
1 1.27861 0.809517 -2.26835
3 -1.28121 0.733593 -2.17106
1 5.40768 -0.0179501 0.0892632
1 2.63898 4.59093 -0.0518122
3 -2.83824 4.79322 -0.146126
2 -5.31099 -0.171523 0.155624
2 -2.59379 -4.77456 -0.0124643
3 2.79418 -4.76056 -0.0151051
2 2.84908 -1.57799 4.45881
2 0.0773978 3.14134 4.27438
2 -2.68602 -1.50327 4.54724
2 0.104075 -3.23502 -4.4319
3 2.73424 1.53995 -4.53007
3 -2.76496 1.40738 -4.44999
1 4.04333 2.25166 6.91218e-05
2 4.12372 -0.694399 2.12524
3 4.05729 0.792593 -2.21597
1 -0.0977721 4.69914 -0.0548729
1 1.46875 3.74887 2.30637
2 2.77778 3.07448 -2.24265
1 -4.19219 2.35293 0.126129
2 -1.41572 3.95719 1.97048
1 -2.70792 3.03958 -2.22469
1 -4.14439 -2.42326 0.0322597
1 -4.03708 -0.823564 2.35025
1 -4.01707 0.622628 -2.24751
3 0.151919 -4.70788 0.00108844
2 -2.56034 -3.17635 2.18559
2 -1.18738 -3.93045 -2.16459
3 3.99689 -2.46076 -0.106423
2 2.88572 -2.97153 2.11775
2 1.49866 -3.81051 -2.21354
3 1.36607 0.588727 4.44329
2 -0.0718748 -1.54485 4.48816
1 -1.44111 0.679192 4.29545
2 1.63751 -0.748712 -4.45006
1 -1.50053 -0.961572 -4.4302
2 -0.0502696 1.64856 -4.34759
3 2.7074 1.49656 2.21496
3 -0.0109228 3.08124 -2.23828
1 -2.639 1.59037 1.95416
3 -2.70707 -1.86013 -2.21261
2 -0.0490549 -3.17529 2.23141
2 2.77183 -1.53196 -2.12624
2 8.14718 0.16849 -0.132286
1 4.02895 6.93917 -0.194497
1 -4.0862 7.03713 0.0508664
1 -8.06423 -0.0660093 -0.0421132
1 -3.95045 -7.03402 0.168832
3 4.18429 -7.12162 0.00768837
1 3.9509 -2.34982 6.75393
2 0.0853581 4.65846 6.44179
2 -4.09659 -2.29126 6.83017
3 0.0188778 -4.71891 -6.57416
2 3.89898 2.29442 -6.64786
3 -3.98263 2.30462 -6.40368
3 6.84685 2.43767 0.0675242
1 6.8598 -0.808859 2.25057
3 6.71358 0.77241 -2.14156
3 1.32543 6.88281 0.0953433
1 2.80152 6.18391 2.122
3 4.0096 5.43489 -2.16084
1 -5.58888 4.84361 -0.163803
3 -2.67341 6.31427 2.21713
1 -4.10354 5.40549 -2.38657
3 -6.71735 -2.33834 -0.0452068
1 -6.69483 -0.766862 2.31227
1 -6.71362 0.606793 -2.12407
1 -1.13221 -7.26337 0.165947
3 -3.92162 -5.49275 2.34262
1 -2.65878 -6.28488 -2.17132
2 5.32671 -4.78137 -0.245845
2 4.37814 -5.53594 2.04136
3 2.90266 -6.30202 -2.31102
2 2.52501 -0.111068 6.66893
3 1.34607 -2.39685 6.68929
2 -1.36287 2.28469 6.43158
3 1.4353 -2.30585 -6.67403
2 -1.32843 -2.53738 -6.43852
3 1.43367 2.25386 -6.53544
1 5.49697 4.77378 -0.0986199
2 5.5672 -1.6059 4.50629
3 5.54592 1.6906 -4.38794
2 -1.43571 7.02663 -0.0299384
3 1.44555 5.56785 4.3009
1 4.0611 3.77804 -4.3582
2 -6.73673 2.30943 0.075283
2 -1.29778 5.44148 4.23226
2 -3.83628 3.8699 -4.40194
3 -5.20487 -4.68538 0.0927942
2 -5.37041 -1.57138 4.67643
1 -5.40854 1.41198 -4.39902
2 1.52177 -7.13949 -0.085147
2 -3.88713 -3.8367 4.43902
1 -1.31456 -5.53944 -4.37099
1 6.72817 -2.28242 -0.133291
2 4.25875 -3.90887 4.27612
1 1.51465 -5.59599 -4.31726
1 1.29055 2.14968 6.44348
1 -1.35629 -2.22134 6.8307
2 -2.89037 -0.0414278 6.82168
2 2.61107 0.0403926 -6.72906
2 -2.70364 -0.0307093 -6.61441
2 -1.47653 2.26399 -6.73342
1 5.48996 3.09216 -2.12543
2 -0.103419 6.19699 2.09148
3 -5.3386 3.0553 -2.18176
2 -5.46544 -3.0796 2.18156
1 0.223162 -6.3393 -2.02805
2 5.51609 -2.99133 2.15275
2 -0.0489354 -0.043754 6.72724
2 -0.109653 -0.206714 -6.35175
1 5.41588 1.62044 2.17213
3 1.15374 5.30899 -2.39932
2 -4.01888 4.07021 1.9495
1 -5.47355 -1.74328 -2.20854
1 -1.34678 -5.60749 2.22693
1 4.17332 -3.95149 -2.19928
1 4.16444 0.618343 4.43902
2 1.24807 3.81039 -4.3752
2 -2.86868 3.16089 4.43512
3 -4.20034 -0.893735 -4.42071
2 -1.27813 -3.99057 4.36983
1 2.91973 -3.15202 -4.41551
3 4.21952 3.93425 2.05379
2 -1.49604 5.51273 -2.14657
3 -5.31468 1.62906 2.27183
2 -3.97382 -4.14651 -2.14526
1 1.42822 -5.43142 2.35111
2 5.41673 -1.37939 -2.18184
3 2.74748 2.89809 4.53702
1 -1.33413 3.86536 -4.50448
1 -4.16872 0.966075 4.39673
2 -2.69703 -3.29159 -4.36229
2 1.47123 -3.95092 4.44519
1 4.21359 -0.617763 -4.44471
2 11.0421 -0.137311 -0.073953
3 5.40833 9.32146 -0.26352
1 -5.51493 9.33102 0.0694244
2 -10.7861 -0.2065 0.0476333
1 -5.46604 -9.54905 0.0164568
1 5.43305 -9.43039 -0.0277662
1 5.39448 -3.03393 8.8398
2 -0.132769 6.2257 8.66213
2 -5.40172 -3.11027 8.88833
2 -0.164464 -6.32477 -8.69616
3 5.38026 3.25055 -8.85243
1 -5.51494 2.98551 -8.79567
3 9.60328 2.36881 -0.141972
2 9.51534 -0.570337 2.13167
2 9.56772 0.97721 -2.3045
1 2.68574 9.33291 -0.0344063
1 4.21242 8.6313 2.10996
2 5.24969 7.63231 -2.30704
2 -6.79644 6.96086 -0.0347702
1 -3.96061 8.59358 2.21595
1 -5.42844 7.77795 -2.37142
1 -9.45951 -2.50009 -0.0355633
2 -9.22232 -0.763333 2.20796
1 -9.46449 0.691004 -2.19813
3 -2.75256 -9.48092 -0.0491031
2 -5.3802 -7.61447 2.22237
3 -4.03351 -8.51985 -2.03942
1 6.83958 -7.05446 0.0564926
3 5.55694 -7.91822 2.29229
2 4.22482 -8.63781 -2.15173
2 4.20712 -0.77621 8.86404
3 2.68792 -3.26936 8.75746
2 -1.45133 3.90726 8.78783
2 1.21843 -3.90947 -8.76822
1 -1.33287 -4.05006 -8.71871
2 2.65563 3.2211 -8.6559
2 8.2059 4.60055 -0.248735
1 8.11121 -1.72373 4.53299
3 8.35583 1.44392 -4.61843
2 0.0177826 9.3275 -0.102223
1 2.79732 7.72374 4.35851
2 5.35752 6.22456 -4.32277
3 -8.25787 4.62607 0.0839192
3 -2.77392 7.67484 4.43098
3 -5.49068 6.28366 -4.58487
3 -8.09306 -4.82043 0.065365
3 -7.88975 -1.62053 4.44576
3 -7.97621 1.41313 -4.39457
3 0.36405 -9.40446 0.194055
2 -5.28883 -6.08585 4.65914
1 -2.81837 -7.86421 -4.33378
2 8.20456 -4.46466 -0.189308
2 5.56985 -6.2483 4.46666
2 2.9161 -7.91003 -4.52741
2 2.66355 1.4748 8.81945
3 -0.0856989 -3.07969 9.0979
1 -2.78035 1.4583 8.85355
2 2.71068 -1.55198 -9.02727
2 -2.63015 -1.63414 -8.75378
3 0.105819 3.15791 -8.84961
2 6.90211 6.9249 -0.00918723
1 6.70731 -2.29819 6.73067
3 6.9308 2.38518 -6.6607
2 -2.84514 9.36546 -0.0334657
1 1.30412 7.00725 6.64012
2 5.4629 4.75468 -6.66368
2 -9.30892 2.06825 -0.139459
2 -1.3881 6.91558 6.5514
2 -5.3252 4.48994 -6.54367
2 -6.73966 -7.11811 0.063303
3 -6.66974 -2.53663 6.65878
1 -6.72403 2.35963 -6.51196
3 2.87105 -9.38692 0.0316531
3 -5.34394 -4.57408 6.8084
3 -1.35804 -7.23115 -6.40172
1 9.59426 -2.22804 -0.0992413
3 5.21739 -4.66069 6.52838
1 1.29809 -7.12718 -6.55203
3 1.17336 3.82423 8.7774
2 -2.64949 -3.13018 9.11829
3 -4.00243 -0.837934 9.08716
1 4.23341 0.688519 -8.91637
2 -4.25852 0.842375 -8.70736
1 -2.61002 3.17488 -8.71499
3 8.16099 3.11658 -2.38716
2 1.41378 8.4293 2.16407
3 -6.69024 5.46518 -2.3483
2 -8.03501 -3.25579 2.14477
3 -1.21465 -8.65013 -2.07654
1 6.92962 -5.56968 2.18908
1 1.31098 -0.906136 9.00403
3 -0.00158934 -1.53987 -8.52604
2 6.85098 4.00727 -4.66352
2 0.12241 7.73111 4.4511
3 -6.65329 3.91842 -4.40802
2 -6.86016 -3.94982 4.43675
2 -0.00352466 -7.87433 -4.22493
3 6.80693 -3.97142 4.46078
1 -1.4708 -0.830548 9.01839
2 -1.2779 0.685028 -8.66285
3 8.00965 1.5874 2.10078
3 2.52097 7.72928 -2.23126
3 -5.43161 6.30006 2.15811
1 -8.14904 -1.73522 -2.23615
2 -2.8528 -7.92091 2.54214
1 5.64733 -6.28553 -2.29515
3 6.74136 0.781708 4.44702
2 2.65263 6.23462 -4.4393
2 -4.17748 5.51177 4.34422
3 -6.6273 -0.794858 -4.42451
3 -2.63296 -6.2614 4.50108
2 4.28502 -5.47706 -4.5967
3 5.44279 -0.00988383 6.6951
1 2.77882 4.59602 -6.50443
2 -2.71127 4.6204 6.63822
3 -5.3544 -0.147111 -6.55504
2 -2.54629 -4.58906 6.6357
2 2.68126 -4.67239 -6.66613
1 6.77026 5.3812 -2.36624
2 -1.41356 8.52324 2.08236
1 -8.06378 3.03159 -2.17944
2 -6.69642 -5.40554 2.28269
2 1.52148 -8.71099 -2.22643
1 8.11101 -3.26058 2.21606
1 -0.0995013 1.42646 8.88575
1 1.4296 0.878782 -8.86387
2 6.83583 3.91635 2.10514
3 -0.155393 7.71965 -2.35195
2 -6.62376 3.99221 2.03681
3 -6.8904 -3.94006 -2.04289
1 0.0786924 -7.93557 2.3381
3 6.84762 -3.84136 -2.26221
2 5.33777 3.04865 4.30923
1 0.075879 6.1845 -4.43775
3 -5.40233 3.20101 4.31127
3 -5.50163 -3.19351 -4.29601
2 -0.107611 -6.29405 4.42964
1 5.56187 -3.17007 -4.53206
1 4.04301 2.20368 6.67349
2 -0.0697774 4.65213 -6.58925
3 -4.06076 2.34233 6.51633
2 -4.03854 -2.35702 -6.4471
2 -0.123815 -4.61353 6.81601
1 4.13324 -2.28726 -6.76287
2 5.41821 6.18612 2.32342
1 -2.76169 7.78622 -2.15265
2 -7.92664 1.54732 2.29458
1 -5.36229 -6.24344 -2.05484
2 2.85172 -7.92983 2.14209
2 7.99425 -1.33348 -2.31422
3 4.03273 5.39126 4.33624
3 -2.69869 6.18995 -4.5207
3 -6.78604 0.736206 4.38077
3 -4.07131 -5.65823 -4.3337
2 2.86052 -6.29369 4.26627
2 6.82254 -0.582166 -4.51731
1 2.63678 4.54173 6.57488
3 -2.69451 4.76001 -6.55351
3 -5.39455 -0.0279332 6.66578
2 -2.80448 -5.03884 -6.51414
1 2.7064 -4.79293 6.62887
1 5.49267 0.181516 -6.73535
1 13.6325 -0.0822878 0.0505286
1 6.84666 11.5377 -0.00909834
2 -6.69746 11.7459 0.0393318
2 -13.3692 0.0680885 -0.0495292
2 -6.64841 -11.7413 -0.040225
2 6.76866 -11.7964 -0.0266683
1 6.6147 -3.85677 11.2271
2 0.0692542 7.77584 11.2099
2 -6.65521 -3.94867 11.1491
3 -0.0637876 -7.85988 -10.7716
3 6.84997 3.99597 -11.3088
3 -6.81276 3.95588 -10.9762
2 12.2871 2.32064 -0.00683145
1 12.069 -0.879399 2.05178
2 12.1707 0.896761 -2.27416
2 3.93149 11.5415 0.102619
2 5.25602 10.9034 2.09638
1 6.82831 9.92761 -2.14649
1 -8.08472 9.38889 -0.135912
3 -5.31626 11.1517 2.13479
2 -6.72608 10.3315 -2.27872
3 -12.1393 -2.35406 0.146838
1 -12.071 -0.815725 2.13265
3 -12.0477 0.81009 -2.236
2 -3.97563 -11.7322 0.101527
1 -6.84815 -10.1263 2.17925
1 -5.41305 -10.9657 -2.19368
2 8.19094 -9.28659 -0.0116059
2 6.78946 -10.1589 2.2758
2 5.53025 -11.0138 -2.15952
3 5.41644 -1.58986 11.1772
2 4.15171 -3.78417 11.0832
2 -1.48261 5.42223 11.0344
2 1.21385 -5.60699 -10.9082
2 -1.41153 -5.5927 -11.0327
1 4.14904 3.9611 -11.1642
3 10.9397 4.64669 -0.00334121
2 10.8567 -1.70256 4.31732
3 10.9827 1.57364 -4.6768
3 1.36724 11.5213 0.0673062
2 4.01977 10.1695 4.52591
2 6.69026 8.55205 -4.24047
3 -9.64884 7.04859 -0.0558743
1 -3.95484 10.1306 4.37501
1 -6.81208 8.62146 -4.44785
3 -10.7696 -4.77342 0.0687464
2 -10.6285 -1.53689 4.2698
2 -10.8801 1.55965 -4.46375
2 -1.15412 -11.649 -0.0752061
2 -6.73067 -8.43244 4.53807
2 -4.12048 -10.1168 -4.11268
2 9.55567 -6.9699 -0.160787
3 6.9326 -8.62892 4.42554
3 4.08869 -10.4048 -4.43063
2 4.01828 0.81939 11.0698
2 1.25243 -3.99081 10.9926
2 -2.7344 3.04449 11.0066
2 2.67026 -3.2025 -10.9505
2 -2.66092 -3.15042 -10.8999
2 1.50372 4.07018 -11.0801
3 9.58147 6.98609 -0.0930548
2 9.46105 -2.40725 6.67284
2 9.50607 2.36977 -6.83258
1 -1.32237 11.7196 -0.128226
3 2.5558 9.25248 6.5091
2 6.8401 6.91688 -6.80599
1 -10.8616 4.74559 -0.0411606
2 -2.81634 9.33806 6.49474
1 -6.85964 7.06821 -6.62162
2 -9.45727 -6.96683 -0.0329109
3 -9.19466 -2.20393 6.5504
2 -9.47753 2.1599 -6.65013
3 1.46455 -11.6412 -0.0546474
3 -6.56862 -6.90867 6.60498
2 -2.75458 -9.47534 -6.53258
2 10.7396 -4.66429 -0.0180976
2 6.7847 -7.08976 6.70903
1 2.90967 -9.48154 -6.57577
3 2.55814 3.18315 10.961
3 -1.41694 -3.86796 11.1341
1 -4.14741 0.601132 11.1132
3 4.17572 -0.943443 -11.0424
2 -3.88833 -0.796888 -11.0412
2 -1.29857 3.95542 -10.8107
2 8.08229 9.47593 0.062752
2 8.16578 -3.11931 8.76804
3 7.97828 3.22839 -8.96242
3 -4.11173 11.6945 -0.0251808
2 1.29646 8.68331 8.67896
3 6.6841 5.58116 -9.04475
2 -12.0043 2.28376 -0.060395
1 -1.36463 8.55438 8.85914
1 -6.90656 5.42991 -8.77512
2 -8.31917 -9.4387 0.0915198
1 -8.17443 -3.17581 8.74734
3 -8.02393 3.01757 -8.72022
2 4.10342 -11.778 0.0400391
3 -6.70164 -5.44342 9.08268
2 -1.25589 -8.67674 -8.60144
3 12.2311 -2.47879 -0.0160552
1 6.7774 -5.44748 8.89658
2 1.48124 -8.50411 -8.6582
2 1.18847 5.37638 10.9715
1 -3.96507 -3.80094 11.2214
3 -5.28079 -1.71178 11.2062
3 5.52511 1.72077 -11.2449
3 -5.31877 1.44321 -10.9083
2 -4.24283 3.96198 -10.9019
3 10.9842 3.36581 -2.11725
3 2.70977 10.6387 2.41176
2 -8.23863 7.81956 -2.23252
2 -10.6314 -3.14292 2.19938
1 -2.77015 -10.8385 -2.14932
2 8.29537 -7.89725 2.31151
2 2.59812 -1.65389 11.0634
1 -0.0486208 -3.28856 -10.9157
2 9.40818 3.74142 -4.68684
2 1.2525 9.96323 4.39932
2 -8.00476 6.13206 -4.32305
3 -9.39569 -4.017 4.2546
2 -1.30126 -10.1221 -4.28634
3 8.11086 -6.39093 4.65257
2 0.0218785 -1.59091 11.3145
2 -1.24206 -0.694397 -10.9426
2 8.1451 4.77192 -6.85112
3 -0.0950124 9.24885 6.59678
1 -8.20272 4.65335 -6.61647
2 -8.00753 -4.75393 6.79523
1 -0.0243587 -9.50354 -6.41125
3 8.14496 -4.73634 6.69922
2 -2.66919 -1.47718 11.3546
1 -2.72637 1.69136 -10.9406
1 10.8563 1.51235 2.04532
2 3.93687 9.87306 -2.23656
2 -6.63843 8.73589 2.07822
3 -10.6905 -1.69475 -2.25781
2 -4.27822 -10.1066 2.48359
1 6.85184 -8.75813 -2.29965
1 9.29719 0.73071 4.45392
2 4.07561 8.71134 -4.49582
1 -5.38629 7.87661 4.38106
2 -9.28696 -0.818365 -4.22343
2 -4.0395 -8.53183 4.55012
2 5.58561 -7.85253 -4.51516
1 8.11287 0.0948307 6.64628
1 4.10378 7.00106 -6.72965
3 -3.97895 6.91236 6.47467
1 -8.13705 -0.13558 -6.66281
2 -3.92347 -6.89936 6.78591
2 4.32714 -7.28315 -6.65285
3 6.82678 -0.921682 8.99372
2 4.14922 5.49472 -8.82538
1 -2.86796 6.29589 8.7607
1 -6.71018 0.604283 -8.72866
3 -3.9799 -5.33159 8.99113
2 2.89425 -6.06171 -8.9003
3 9.55764 5.4879 -2.48177
1 -0.0664118 10.7729 2.21464
2 -9.2132 5.36519 -2.17754
3 -9.59417 -5.51019 2.09646
2 0.0831534 -10.854 -2.12223
1 9.57273 -5.62427 2.29996
3 1.27867 0.767063 11.0393
1 1.332 -0.863528 -11.0186
2 8.13418 6.28804 -4.67846
3 -1.42799 10.0154 4.34305
1 -9.3489 3.99426 -4.36396
2 -8.25591 -6.29303 4.53572
2 1.48376 -10.2064 -4.32175
3 9.41243 -3.9709 4.44483
3 -1.35375 0.732502 11.2177
3 0.132822 1.56271 -11.0706
1 9.48583 3.76685 2.07192
3 1.29303 10.0485 -2.29242
2 -8.15758 6.37915 2.10899
3 -9.53672 -3.96488 -2.09483
2 -1.46575 -10.2182 2.16662
1 8.24448 -6.18553 -2.37117
1 7.98416 3.13963 4.47691
3 1.31705 8.49887 -4.42846
2 -6.84543 5.50919 4.24955
3 -8.18056 -3.18968 -4.55888
2 -1.4068 -8.68485 4.58673
3 6.80651 -5.52919 -4.52623
2 6.73236 2.37703 6.60928
1 1.31614 6.99683 -6.6023
1 -5.54855 4.66952 6.44679
2 -6.69008 -2.45214 -6.5189
1 -1.36272 -6.97134 6.69547
2 5.54094 -4.6668 -6.69651
2 5.35122 1.35829 8.84683
3 1.44533 5.51924 -8.77876
3 -4.08476 3.82965 8.79884
1 -5.516 -1.78038 -8.70132
3 -1.30305 -5.34762 8.91532
2 4.09681 -3.85853 -8.90256
2 8.10794 7.68836 -2.24684
2 -2.68425 11.1091 2.1913
2 -10.8157 3.15063 -2.15124
1 -8.16051 -7.68155 2.22469
3 2.88718 -10.8887 -2.10716
1 10.7756 -3.2426 2.16199
3 -0.133668 3.02301 11.0404
1 2.85498 1.58316 -11.1148
1 7.95744 6.29448 2.18011
2 -1.35356 10.0861 -2.14899
2 -9.35823 3.9003 2.25942
2 -8.15993 -6.24212 -2.26411
3 1.30141 -10.2463 2.22473
1 9.55509 -3.73534 -2.47125
2 6.74484 5.21863 4.44681
1 -1.4386 8.59772 -4.309
2 -7.99174 3.13144 4.33601
3 -6.83987 -5.5171 -4.39106
1 1.61368 -8.54443 4.40646
2 8.12064 -3.02834 -4.60978
2 5.16022 4.66795 6.63319
2 -1.52037 7.01135 -6.6484
2 -6.73721 2.23144 6.43149
3 -5.40439 -4.82047 -6.56602
2 1.45974 -6.98673 6.6439
1 6.83178 -2.28502 -6.81787
1 3.74405 3.80497 8.84646
1 -1.38435 5.58827 -8.5731
1 -5.47354 1.51235 8.77988
2 -4.03235 -4.07722 -8.59551
2 1.27143 -5.51185 8.78484
2 5.52492 -1.3544 -8.89325
2 6.74892 8.54994 2.26018
2 -4.13957 10.1186 -2.22992
3 -10.6058 1.47271 2.13123
3 -6.86949 -8.59521 -2.04978
2 4.12679 -10.2003 2.21357
3 10.9392 -1.58655 -2.24753
2 5.33928 7.82366 4.4513
2 -4.09019 8.55987 -4.44556
2 -9.34642 0.647548 4.39919
3 -5.38886 -7.89115 -4.15121
3 4.05399 -8.52025 4.41935
3 9.48971 -0.742217 -4.42661
3 3.974 6.98007 6.61492
2 -4.15978 6.89703 -6.55215
3 -8.08523 -0.177733 6.57355
3 -4.17186 -7.13739 -6.53213
2 4.03889 -7.15895 6.47423
3 8.01428 0.119716 -6.7882
2 2.56206 6.17455 8.76314
3 -4.04173 5.42208 -8.6483
1 -6.64605 -0.89724 8.93886
3 -2.73015 -6.56253 -8.75403
2 4.21137 -5.4505 8.88683
2 6.79089 1.0226 -9.02758
2 16.3557 0.217779 0.104252
1 8.15883 13.9261 0.0152852
1 -8.20863 14.0026 0.0704788
1 -16.1471 0.0540197 -0.0638644
1 -8.06538 -14.063 -0.0125939
1 8.12335 -14.1672 -0.0947908
1 7.94486 -4.64758 13.4253
3 -0.0513387 9.33874 13.2555
1 -7.93062 -4.70487 13.3712
1 -0.0336112 -9.36854 -13.1629
1 8.13811 4.68888 -13.4412
2 -7.99217 4.77699 -13.0459
3 14.7628 2.29935 0.158956
2 14.9026 -0.847378 2.42857
2 14.9411 0.766339 -2.18762
2 5.43677 13.9782 0.00382318
3 6.57754 13.0321 2.216
3 8.03421 12.397 -2.30499
1 -9.64741 11.6445 0.0098973
2 -6.75824 13.3797 2.27438
2 -8.03814 12.571 -2.146
2 -14.6484 -2.12617 -0.0483491
3 -14.7324 -0.573224 2.09308
2 -14.8938 0.848446 -2.16576
1 -5.44565 -14.047 -0.047179
2 -8.09195 -12.4363 2.12014
1 -6.77946 -13.3617 -2.32995
1 9.48821 -11.7595 0.154054
2 8.13719 -12.6279 2.08045
2 6.76884 -13.3144 -2.3472
2 6.73274 -2.11296 13.4718
2 5.4124 -4.64386 13.4587
1 -1.39694 6.86855 13.2514
1 1.35012 -7.01154 -13.1092
1 -1.26482 -6.98269 -13.0305
1 5.48092 4.6626 -13.2832
3 13.4846 4.71824 -0.00182013
3 13.5523 -1.58967 4.35647
1 13.5385 1.46517 -4.42307
1 2.60573 13.8079 -0.0546645
1 5.32822 12.3892 4.50177
1 7.9592 10.9261 -4.51758
2 -10.7904 9.50642 -0.117876
1 -5.36235 12.5898 4.38018
2 -8.08501 10.9696 -4.39031
2 -13.4681 -4.61562 0.103668
2 -13.3508 -1.43148 4.44469
2 -13.4951 1.57601 -4.32958
3 -2.68889 -13.9793 -0.0321125
2 -8.28995 -10.808 4.39734
1 -5.55832 -12.6412 -4.48423
3 11.1269 -9.35299 -0.0673767
2 8.23904 -11.1124 4.29088
2 5.49105 -12.5887 -4.53274
3 5.29058 0.0667076 13.0977
1 2.63459 -4.79729 13.237
3 -2.7172 4.72054 13.2072
1 2.66974 -4.67803 -13.2738
3 -2.66462 -4.68466 -13.1698
2 2.87885 4.68876 -13.2192
1 12.1837 7.012 -0.0314645
1 12.1529 -2.30193 6.60373
2 12.3874 2.21488 -6.62838
3 -0.0870092 14.0521 0.0907577
3 3.93913 11.7183 6.78037
2 8.02013 9.27798 -6.68605
2 -12.2638 7.32142 0.155164
2 -4.00332 11.7613 6.55676
1 -8.21688 9.50238 -6.65327
3 -12.3264 -7.06423 -0.0716543
1 -11.9541 -2.29779 6.51736
2 -12.2068 2.19395 -6.64412
2 0.0200687 -14.1679 0.0600139
3 -8.0016 -9.30291 6.71204
2 -4.12822 -11.7793 -6.58105
2 12.0874 -7.14883 -0.128834
2 8.22315 -9.36385 6.625
3 4.15838 -11.8517 -6.5302
1 4.03452 2.58569 12.991
3 0.0379541 -4.62779 13.4539
1 -3.97003 2.41183 13.2717
1 4.11027 -2.38011 -13.3069
2 -4.04706 -2.48856 -13.2674
2 0.0605904 4.65877 -13.3288
1 10.96 9.30163 0.149771
3 10.8583 -3.1112 8.89808
2 10.8375 3.14512 -9.02607
2 -2.71599 14.1198 0.0876575
3 2.61286 10.8377 8.83001
2 8.25737 7.82219 -8.90377
1 -13.4757 4.85364 -0.0408822
3 -2.63954 10.936 8.93967
2 -8.36669 8.01505 -8.76504
2 -10.938 -9.26212 -0.0274129
3 -10.6825 -3.19453 8.74784
3 -10.8315 2.85955 -8.91137
1 2.79797 -14.0503 0.0922179
1 -7.99455 -7.68283 8.83579
2 -2.7373 -11.0266 -8.81079
2 13.3606 -4.91704 -0.108937
1 8.11017 -7.84237 8.95845
3 2.79368 -10.9636 -9.08817
2 2.70363 4.74171 13.0792
1 -2.62334 -4.76935 13.3437
2 -5.43864 0.0186061 13.5177
2 5.65311 0.0360051 -13.3169
3 -5.45234 -0.0327898 -13.1844
2 -2.71897 4.57024 -13.0674
2 9.46605 11.6393 0.114512
2 9.46448 -4.04144 11.0261
2 9.51044 3.98367 -11.1828
2 -5.49113 14.0774 -0.0244934
3 1.32198 10.1542 11.2231
3 8.03036 6.17036 -11.2392
2 -14.7603 2.44445 0.0205423
2 -1.31497 10.3002 11.0497
1 -8.41667 6.26799 -10.9628
1 -9.66221 -11.6922 0.0615608
2 -9.48087 -3.95031 10.8365
3 -9.56369 3.85493 -11.1636
2 5.59359 -14.1212 -0.121879
3 -8.01194 -6.15618 10.9797
3 -1.31886 -10.1751 -10.7849
2 14.7886 -2.31447 0.113478
3 8.07035 -6.175 11.0341
2 1.36041 -10.262 -11.0119
2 1.35007 7.13233 13.3698
2 -5.30971 -4.73954 13.3705
2 -6.74221 -2.25058 13.3053
2 6.83696 2.31421 -13.4229
1 -6.73685 2.4122 -13.0369
1 -5.34618 4.70383 -13.2766
2 13.8808 3.24629 -2.0536
1 4.05922 13.2242 2.23369
2 -9.49229 10.1298 -2.2799
2 -13.546 -2.99754 2.30399
2 -4.14479 -13.151 -2.15013
2 9.57992 -10.2407 2.20592
1 4.20439 -2.41595 13.316
3 -0.0740423 -4.78763 -13.2066
2 12.1831 3.95114 -4.15733
1 2.65241 12.4122 4.61993
2 -9.57808 8.65714 -4.51637
2 -11.8638 -3.96036 4.31911
3 -2.80723 -12.4472 -4.4699
2 9.55741 -8.64158 4.3997
2 1.4016 -2.3899 13.4634
2 -1.45792 -2.27152 -13.1163
2 10.8954 4.79597 -6.61842
3 1.41829 11.2964 6.72938
1 -9.62218 6.89558 -6.62553
2 -10.6277 -4.53057 6.62308
2 -1.35768 -11.7958 -6.68795
2 9.58476 -6.97449 6.69469
1 -1.31534 -2.35128 13.4257
2 -2.88509 0.0279839 -13.2833
3 9.51284 5.54561 -8.99777
2 0.0812559 10.869 8.9419
2 -9.7243 5.41825 -8.96452
3 -9.31858 -5.46911 8.71988
1 0.0766217 -11.0195 -8.66374
1 9.41892 -5.45436 8.87587
2 -3.95986 -2.24414 13.4917
3 -3.98279 2.44594 -13.131
2 13.3844 1.54109 2.1972
1 5.12651 12.3842 -2.04391
1 -8.09056 11.1031 2.16088
2 -13.2933 -1.52267 -2.07691
3 -5.46459 -12.5481 2.40989
1 8.33934 -11.0191 -2.26619
1 12.1133 0.771959 4.31305
1 5.29019 10.8798 -4.30092
3 -6.69738 10.2753 4.29257
2 -11.9567 -0.884533 -4.32853
2 -5.55647 -10.9487 4.49271
2 6.89779 -10.3934 -4.40873
3 10.8142 -0.0410254 6.40155
1 5.23427 9.41959 -6.57625
1 -5.26479 9.34843 6.51915
3 -10.8138 -0.153264 -6.56244
3 -5.36842 -9.16629 6.6746
3 5.52972 -9.45883 -6.44971
1 9.5038 -0.781995 8.93239
2 5.47952 7.94633 -8.85318
2 -3.86754 8.55704 8.87524
2 -9.4249 0.526332 -8.81672
2 -5.24295 -7.58743 8.89601
1 4.1799 -8.64002 -8.82686
2 7.97484 -1.62667 11.2024
3 5.58669 6.28733 -10.9997
2 -2.75906 7.66833 11.0823
3 -8.05182 1.46227 -11.0496
3 -5.37585 -6.2413 11.1768
2 2.70925 -8.14379 -11.1066
2 12.3076 5.52023 -2.24081
2 1.26732 13.1744 2.27462
3 -10.8739 7.77652 -2.33965
1 -12.2961 -5.58894 2.12407
2 -1.22061 -13.2756 -2.18331
3 10.8947 -7.90189 2.08
2 2.74516 -0.149873 13.3206
1 1.35245 -2.33266 -13.314
2 10.7739 6.26381 -4.57606
2 0.149798 12.2811 4.54073
2 -10.8503 6.27187 -4.38796
1 -10.7266 -6.30828 4.37781
2 -0.0831778 -12.5505 -4.48636
2 10.7355 -6.2824 4.31499
3 0.0572483 0.00844332 13.2775
1 -0.108982 -0.0674134 -13.2874
3 9.62013 7.04821 -6.78497
3 -1.30555 11.6355 6.63031
2 -10.8101 4.57311 -6.74551
2 -9.35734 -7.15666 6.76135
2 1.40663 -11.6538 -6.53375
3 10.8539 -4.79501 6.69278
3 -2.67541 0.11471 13.4478
1 -1.2661 2.3227 -13.2254
2 12.1851 3.95562 2.21584
2 2.43543 12.2431 -2.17384
3 -9.53369 8.72238 2.20498
3 -12.1297 -3.91182 -2.11396
2 -2.72653 -12.5174 2.1085
1 9.48627 -8.57603 -2.2083
1 10.7169 3.12125 4.47822
3 2.66763 10.9235 -4.29128
2 -8.16963 8.05038 4.32199
2 -10.8202 -3.24072 -4.28839
2 -2.70907 -10.9069 4.5094
3 7.98043 -8.05281 -4.40055
3 9.49764 2.26244 6.66075
2 2.66059 9.48213 -6.48265
2 -6.76098 6.97674 6.41717
2 -9.45713 -2.36688 -6.47241
3 -2.77954 -9.43641 6.67656
1 6.9587 -7.01957 -6.73563
1 8.13843 1.57193 8.9096
1 2.66065 8.0185 -8.76606
1 -5.43349 6.36223 8.71894
3 -8.07217 -1.73381 -8.85465
3 -2.71094 -7.75587 8.96349
2 5.53771 -6.30031 -8.87544
2 6.70759 0.867661 11.0368
2 2.79889 6.19729 -10.9148
2 -4.03428 5.43489 10.9889
2 -6.74075 -0.770094 -11.069
2 -2.83137 -6.21122 11.1095
2 4.0027 -5.59011 -11.0634
2 10.9031 7.80418 -2.1751
1 -1.31068 13.2233 2.25539
1 -11.9822 5.50489 -2.17253
2 -10.8998 -7.75209 2.17604
2 1.46036 -13.0752 -2.09122
3 12.2615 -5.46845 2.16899
2 1.43146 2.151 13.1026
2 2.68504 -0.222347 -13.2884
1 9.33572 8.47775 -4.57551
2 -2.4796 12.4271 4.51126
2 -12.0205 3.91583 -4.51918
2 -9.60114 -8.64487 4.46674
2 2.73944 -12.4912 -4.2851
2 12.0877 -3.99758 4.43164
1 -1.2584 2.29963 13.3779
2 1.65575 2.17704 -13.1167
2 10.7272 6.26827 2.08351
3 -0.187015 12.3427 -2.28272
1 -10.7243 6.40182 2.30036
1 -10.8947 -6.18098 -2.28474
2 -0.0170164 -12.5576 2.06527
3 10.7808 -6.11756 -2.2796
2 9.41683 5.48924 4.30496
3 -0.106778 10.7898 -4.33053
3 -9.38119 5.59525 4.3614
2 -9.50283 -5.52278 -4.28922
2 0.0777053 -10.9 4.42752
3 9.41246 -5.41897 -4.57097
2 8.15208 4.711 6.64202
3 -0.177379 9.23833 -6.61404
2 -8.05084 4.604 6.52869
2 -8.00319 -4.9024 -6.55597
2 -0.0812253 -9.40297 6.60264
3 8.08606 -4.59972 -6.7979
1 6.74472 4.02257 8.77142
2 -0.0664807 7.91757 -8.73611
2 -6.67936 3.91929 8.70583
2 -6.79946 -3.95131 -8.65097
2 0.036366 -7.74447 8.91471
2 6.81265 -3.81851 -9.05486
3 5.44779 3.25389 10.9117
2 0.156805 6.31309 -10.8209
1 -5.23142 3.20026 11.0852
2 -5.44711 -3.21928 -11.0394
1 -0.106136 -6.19762 11.103
2 5.44797 -3.08049 -11.2694
2 9.45274 9.98238 -2.15506
3 -3.97426 13.3427 2.14549
2 -13.5683 3.297 -2.33363
3 -9.6728 -10.0417 2.33099
2 4.06262 -13.2924 -2.22653
2 13.3863 -3.0147 2.21141
2 -0.078731 4.59908 13.1902
1 4.29983 2.41981 -13.2898
3 9.36782 8.68083 2.26714
2 -2.76014 12.4272 -2.10796
3 -12.1466 4.09334 2.1752
3 -9.43725 -8.4501 -2.12123
2 2.47811 -12.5177 2.2571
1 12.121 -3.92358 -2.12143
1 8.04485 7.7677 4.54581
3 -2.87898 10.9182 -4.4558
1 -10.76 3.19245 4.33161
1 -8.15915 -8.10907 -4.32224
2 2.82604 -10.7961 4.50202
2 10.8631 -3.09145 -4.47415
1 6.53554 6.94254 6.77042
2 -2.67325 9.39317 -6.45497
2 -9.2416 2.27735 6.48447
2 -6.5356 -7.215 -6.28583
1 2.7818 -9.34012 6.72036
1 9.6003 -2.33679 -6.7286
3 5.18633 6.18411 8.75017
2 -2.84732 7.79376 -8.72467
2 -8.13953 1.49632 8.65144
2 -5.55657 -6.56573 -8.59821
2 2.8983 -7.72301 8.92481
1 8.15886 -1.49742 -9.02994
1 3.92164 5.49303 10.9478
2 -2.54946 6.17454 -10.7459
2 -6.58276 0.707081 11.0432
2 -4.09504 -5.66568 -10.7461
2 2.70552 -6.22668 11.1016
3 6.96616 -0.605262 -11.3459
3 7.98455 10.774 2.29244
3 -5.38764 12.548 -2.12415
2 -13.2564 1.61568 2.21367
2 -8.34523 -10.7954 -2.1849
3 5.39952 -12.5219 2.06702
2 13.4918 -1.63346 -2.36358
2 6.57817 10.0908 4.47005
2 -5.44618 11.0397 -4.41189
3 -12.1408 0.783126 4.32566
3 -6.92664 -10.2405 -4.23165
1 5.4323 -11.0321 4.25537
2 12.2353 -0.649388 -4.63241
1 5.26854 9.30771 6.68582
1 -5.47774 9.34448 -6.45003
3 -10.7228 0.0447887 6.49381
2 -5.3398 -9.44729 -6.36737
1 5.48056 -9.52054 6.52333
2 10.7933 0.0230046 -6.69962
2 3.93357 8.51948 8.76837
2 -5.53004 7.65503 -8.75201
3 -9.41069 -0.647842 8.90503
2 -4.27594 -8.83698 -8.65002
3 5.50822 -7.86074 8.68601
1 9.45695 0.840545 -8.99745
2 2.4596 7.74514 10.8875
2 -5.31431 6.12708 -10.804
2 -8.14373 -1.53829 10.9725
3 -2.56611 -8.00745 -10.9128
2 5.50999 -6.18562 10.9555
2 8.15069 1.61217 -11.2416
2 18.8926 0.0390615 -0.139469
3 9.43042 16.3339 0.262936
3 -9.56567 16.5161 0.11355
2 -19.0242 0.308265 -0.143784
3 -9.37347 -16.3683 -0.0362481
1 9.50381 -16.4426 0.0697499
1 9.44268 -5.53419 15.8269
1 -0.110709 10.8846 15.4815
3 -9.31691 -5.16176 15.5747
2 -0.0204731 -10.8788 -15.3052
1 9.58647 5.44449 -15.7008
1 -9.30261 5.21197 -15.3425
1 17.6559 2.48983 0.147523
2 17.4552 -0.765556 2.27617
3 17.5352 0.813077 -2.11479
2 6.96512 16.2027 -0.0337047
2 8.07315 15.4366 2.32772
2 9.70986 15.1826 -2.16603
1 -10.8861 14.0656 0.171917
1 -8.09013 15.6324 2.23646
2 -9.50078 14.9897 -2.13674
2 -17.3851 -2.18189 -0.095797
3 -17.5317 -0.645546 1.98099
3 -17.5318 0.811329 -2.24998
3 -6.8372 -16.4526 0.0493652
3 -9.44372 -14.849 2.24894
2 -8.13862 -15.5744 -2.17277
3 10.8373 -14.1475 0.0320529
1 9.49545 -14.9811 2.17841
1 8.30253 -15.8212 -2.18432
1 7.96098 -2.9898 15.7125
2 6.89616 -5.30226 15.764
1 -1.33192 8.51172 15.4691
2 1.63594 -8.5089 -15.2934
3 -1.20725 -8.58216 -15.3313
1 6.92134 5.30676 -15.6647
3 16.0939 4.70711 0.169359
2 16.0899 -1.50618 4.55524
3 16.1582 1.6135 -4.33787
1 3.96845 16.264 -0.0323882
2 6.74486 14.5858 4.68178
1 9.49065 13.5327 -4.21461
2 -12.2094 11.7901 -0.108603
1 -6.88213 14.7427 4.59828
2 -9.39384 13.3796 -4.3269
2 -16.1308 -4.66552 0.118606
1 -16.2132 -1.4915 4.2211
1 -16.1679 1.61095 -4.16979
1 -4.03749 -16.3404 -0.116783
2 -9.44257 -13.2118 4.41749
3 -6.93936 -14.9274 -4.48293
2 12.1802 -11.6926 -0.00598845
2 9.6554 -13.4483 4.22102
3 6.74289 -14.8717 -4.37651
3 6.69916 -0.640123 15.648
1 4.08993 -5.58381 15.3935
3 -2.74616 6.0862 15.4617
1 2.71756 -6.2044 -15.4208
2 -2.68228 -6.36629 -15.3169
1 4.14713 5.30858 -15.453
2 14.9077 7.03038 0.0960404
1 14.7286 -2.3803 6.77356
1 14.9856 2.3905 -6.59824
2 1.17455 16.4385 0.0888168
1 5.42776 14.01 6.78953
2 9.30001 11.6079 -6.5782
3 -13.5515 9.68887 -0.0893691
2 -5.12128 13.9794 6.63784
2 -9.46069 11.8295 -6.77703
2 -14.9171 -7.16683 -0.0361696
2 -14.7836 -2.42898 6.51533
1 -14.9004 2.24636 -6.66331
3 -1.40867 -16.3697 0.0354519
2 -9.472 -11.5124 6.66358
3 -5.69459 -14.1969 -6.66447
2 13.5848 -9.42403 -0.109003
2 9.58463 -11.8146 6.4303
1 5.52017 -14.0101 -6.67747
2 5.49548 1.58115 15.3226
1 1.25925 -5.58767 15.6494
2 -3.95652 4.03517 15.4749
3 4.14371 -3.93855 -15.2748
3 -4.04997 -4.04035 -15.4066
1 1.46716 5.51244 -15.4603
3 13.5908 9.43255 0.0366651
1 13.5361 -3.2157 8.96073
3 13.5491 3.18829 -8.76633
3 -1.4952 16.3916 0.0344024
1 3.99793 13.237 9.04934
2 9.37768 10.1131 -9.01628
2 -14.903 7.19499 0.00793938
3 -4.09967 13.3447 8.81237
3 -9.74229 10.235 -8.79161
2 -13.7182 -9.37988 0.116036
2 -13.4903 -3.04094 8.71677
2 -13.6847 3.04842 -8.93862
3 1.2867 -16.6545 -0.0080074
2 -9.53171 -10.0778 8.84974
3 -4.08623 -13.1577 -8.91641
1 14.8221 -7.07684 -0.0696061
3 9.45137 -10.1921 8.84314
3 3.99748 -13.2638 -8.84414
2 4.08579 4.02284 15.4319
3 -1.57908 -5.50661 15.5557
1 -5.3154 1.52939 15.4724
3 5.52304 -1.57952 -15.3474
3 -5.28645 -1.61698 -15.4103
1 -1.37737 5.46589 -15.5364
3 12.0452 11.834 0.0399862
1 12.205 -3.93855 11.2008
1 12.3607 3.91157 -11.0148
1 -4.26062 16.4741 0.106716
3 2.61733 12.4465 11.0827
3 9.43111 8.67265 -11.12
1 -16.2182 4.99789 -0.149451
2 -2.72151 12.501 11.1998
3 -9.61327 8.45313 -11.066
2 -12.1755 -11.6748 -0.0153814
2 -12.2313 -3.6648 11.1239
2 -12.1736 3.75569 -10.8717
2 4.04877 -16.3648 -0.206887
2 -9.56163 -8.27985 11.1839
1 -2.57904 -12.5245 -11.1315
2 16.1187 -4.75835 -0.179132
1 9.55057 -8.45592 11.0738
2 2.69506 -12.5147 -11.0998
3 2.68074 6.18247 15.4545
1 -4.10801 -5.49483 15.5392
1 -6.67195 -0.694784 15.6179
3 6.75214 0.68866 -15.5393
1 -6.72283 0.588504 -15.4581
2 -4.07505 5.33261 -15.4447
3 10.7992 14.0671 -0.080964
1 10.6043 -4.69214 13.5712
2 10.898 4.76701 -13.2266
2 -6.92113 16.4063 0.0231942
3 1.12136 11.7123 13.2647
2 9.41708 6.88897 -13.3308
1 -17.4757 2.54689 -0.0913328
3 -1.31595 11.5444 13.237
3 -9.49404 6.8419 -13.2523
2 -10.7196 -14.0727 0.0457465
2 -10.8263 -4.53192 13.3593
2 -11.2047 4.56066 -13.183
2 6.92097 -16.5615 -0.125848
2 -9.44363 -6.76803 13.4082
2 -1.2849 -11.5495 -13.1958
3 17.4979 -2.22174 0.0530818
2 9.43185 -7.15027 13.2772
3 1.21747 -11.823 -13.3149
3 1.28237 8.54856 15.4681
1 -6.67782 -5.2255 15.8235
2 -8.14995 -2.80981 15.543
3 8.22033 3.10176 -15.5377
1 -8.05144 2.83162 -15.5967
2 -6.76388 5.08729 -15.6518
1 16.2297 3.15301 -2.12036