3598
 Atoms. Timestep: 6000
2 -0.0708167 -0.0238822 -0.243027
3 2.62075 -0.134219 0.0402404
2 1.26974 2.14472 -0.0877538
2 -1.44546 2.2195 -0.128006
1 -2.58526 -0.134204 -0.0573949
3 -1.48359 -2.54292 -0.00214827
2 1.35236 -2.37906 -0.0413755
2 1.20609 -0.867742 2.16595
2 -1.34294 -0.810428 1.89344
1 1.32153 0.743753 -2.19904
3 -1.31559 0.55872 -2.30888
1 5.31875 -0.0755303 -0.145908
1 2.70094 4.57892 0.0703337
3 -2.6379 4.53712 -0.00667482
2 -2.60078 -5.01212 -0.0483685
3 2.50384 -4.79275 -0.0398293
2 2.56382 -1.36134 4.24672
2 -0.0717676 3.33101 4.38458
2 -0.0501217 -3.31509 -4.31176
3 2.55353 1.71363 -4.31626
3 -2.57085 1.39268 -4.48676
1 3.74628 2.17748 0.10103
2 4.16395 -0.714701 2.25472
3 3.95132 0.76785 -2.30468
1 0.0273898 4.55894 -0.0384341
1 1.31669 3.62645 2.25069
2 2.74069 3.19424 -2.26574
1 -4.21475 2.26261 -0.0759668
2 -1.35201 3.61785 2.08893
1 -2.57588 2.86031 -2.31496
1 -4.01742 -2.28917 -0.088735
1 -4.24515 -0.69499 2.14083
1 -4.01322 0.60098 -2.25236
3 -0.0123902 -4.83605 -0.110699
2 -2.81174 -2.97809 2.09388
2 -1.39415 -4.05949 -2.25015
3 3.91005 -2.30241 0.102861
2 2.61013 -3.16161 2.11398
2 1.34786 -4.08548 -2.17522
2 -0.10106 -1.20998 4.33616
1 -0.0777568 1.29639 2.92854
2 1.17112 -0.789118 -4.21802
1 -1.54663 -0.987069 -4.42125
3 2.75825 1.28183 2.26015
3 -0.102131 3.03419 -2.23018
1 -2.68327 1.455 2.0518
3 -2.67316 -1.61935 -2.17488
2 -0.203377 -3.31255 2.10251
2 7.96587 -0.0261834 -0.0827402
1 -3.92938 6.70656 0.0172655
1 -7.99384 0.274072 -0.0191487
1 -4.01673 -7.20167 -0.0717254
3 3.84245 -6.98625 -0.0229334
2 0.112241 4.81588 6.55465
2 -4.17512 -2.18782 6.46279
3 0.0778537 -4.68193 -6.60727
3 -3.99488 2.33479 -6.47445
1 6.67774 -0.833427 2.16308
3 6.59968 0.629436 -2.38691
3 1.42017 6.96399 0.0156042
1 2.86047 6.20343 2.32917
3 3.97665 5.5211 -2.12289
1 -5.3871 4.55985 0.114275
3 -2.55173 6.24232 2.12122
1 -4.01653 5.09439 -2.2728
3 -6.81912 -2.2949 -0.0602099
1 -6.78734 -0.668352 2.19299
1 -6.64487 0.977065 -2.3405
1 -1.2246 -7.1986 -0.029484
3 -3.90217 -5.30456 2.48219
1 -2.61555 -6.3421 -2.26524
2 5.26534 -4.59777 0.117577
2 3.88868 -5.55696 2.04933
3 2.82985 -6.43503 -2.36008
2 -1.34853 2.2273 6.60637
3 1.36841 -2.45943 -6.41787
2 -1.47246 -2.47556 -6.57817
3 0.880744 2.06271 -6.39061
1 5.32721 4.68419 0.091022
2 5.24449 -1.60694 4.45174
3 5.32624 1.61346 -4.27818
2 -1.32761 6.8767 -0.0219114
3 1.23587 5.58904 4.429
1 3.92405 3.86845 -4.35174
2 -6.6479 2.38474 -0.035001
2 -1.42709 5.4266 4.37324
2 -3.85278 3.89171 -4.59641
3 -5.09328 -4.71412 0.0140507
2 -5.58496 -1.30267 4.31319
1 -5.32373 1.47534 -4.47243
2 1.29898 -7.11251 0.0106426
2 -4.359 -3.71106 4.4372
1 -1.29942 -5.5502 -4.46879
1 6.84217 -2.22176 -0.166898
2 3.79625 -3.75117 4.54193
1 1.40147 -5.43573 -4.35911
1 1.35468 2.22188 5.99786
1 -1.53003 -2.1318 6.63308
2 -2.68821 0.123554 6.25859
2 2.45781 -0.00420591 -6.42068
2 -2.73629 0.0284983 -6.65977
1 5.40434 2.8117 -2.1229
2 0.050489 5.99624 2.17217
2 -5.4252 -3.15421 1.94689
2 5.40009 -2.98289 2.21324
2 0.164469 0.120769 6.58442
2 -0.162077 -0.224582 -6.29413
1 5.45673 1.58152 2.0503
3 1.35738 5.3031 -2.24887
2 -4.08619 3.82047 2.31214
1 -5.34815 -1.61901 -2.16268
1 -1.26535 -5.478 2.23964
1 3.91935 -3.71183 -2.07137
1 3.51145 0.924608 4.66481
2 1.17735 3.86725 -4.51678
2 -2.62001 2.97632 4.50174
2 -1.72611 -3.58609 4.52435
1 2.53317 -2.85397 -4.19929
3 3.98948 3.80292 2.21091
2 -1.31579 5.43387 -2.13084
3 -5.55724 1.61949 2.13337
2 -4.02197 -4.13206 -2.12133
1 1.24598 -5.41753 2.25567
2 5.23849 -1.51206 -2.58508
1 -1.25515 3.65362 -4.49748
1 -4.01524 0.959698 4.2867
2 -2.74068 -3.0502 -4.30984
2 0.953972 -3.8586 4.28015
1 3.93333 -0.623151 -4.66384
2 10.9645 0.0446017 -0.24058
3 5.21789 9.26182 0.177178
1 -5.53237 9.39565 -0.0142732
2 -10.7812 -0.104881 -0.0446341
1 -5.39089 -9.61289 -0.0240364
1 5.32467 -9.23251 0.16482
1 5.32647 -2.98889 8.76425
2 -0.174185 6.25603 9.05063
2 -5.43335 -2.96061 8.63045
2 -0.155046 -6.08021 -8.61446
3 5.04247 2.50003 -8.50089
3 9.47496 2.00353 -0.0667774
2 9.37547 -0.786265 2.06721
2 9.38745 0.712273 -2.37358
1 2.71258 9.27275 0.0938469
1 4.1028 8.41631 2.2654
2 5.12912 7.709 -2.10032
2 -6.69153 6.66365 -0.0152868
1 -4.15668 8.34239 2.34835
1 -5.46192 7.65458 -2.27149
1 -9.32995 -2.31929 0.0320343
2 -9.16044 -0.458223 2.15783
1 -9.18592 0.614424 -2.37249
3 -2.80495 -9.28084 -0.00116989
2 -5.45098 -7.93771 1.9538
1 6.51533 -6.79046 -0.0102114
3 5.23109 -7.82214 2.2091
2 3.89254 -8.75615 -1.94329
2 4.28008 -0.722347 8.80421
3 2.69451 -3.07419 8.87999
2 -1.35303 4.06694 8.84592
2 1.30342 -3.57587 -8.91859
1 -1.49083 -3.85966 -8.76675
2 2.44689 2.13905 -8.41567
1 7.92883 -1.73257 4.37576
3 8.27731 1.22662 -4.52756
2 -0.0833756 9.22079 0.0698704
1 2.69369 7.64348 4.48951
2 5.31643 6.00069 -4.40338
3 -8.0384 4.49816 0.172359
3 -5.20152 5.96001 -4.34097
3 -8.02764 -4.63207 -0.0445798
3 -8.24027 -1.61709 4.44981
3 0.14186 -9.41599 -0.0227981
2 -5.39633 -6.11418 4.45577
1 -2.76358 -7.9201 -4.27911
2 7.9186 -4.65031 -0.0973585
2 5.40885 -6.12757 4.26374
2 2.53352 -7.99457 -4.31129
2 2.7565 1.84002 8.84854
1 -2.48861 1.7811 8.85468
3 0.0495255 3.18127 -8.62463
2 6.50862 6.78001 -0.0545512
1 6.56447 -2.32946 6.63335
3 6.59352 2.07744 -6.66957
2 -2.91684 9.05681 -0.0386377
1 1.4434 6.89159 6.7868
2 5.28177 4.39325 -6.64958
2 -9.40469 2.06964 -0.162324
2 -1.28464 6.89483 6.7899
2 -6.7622 -7.04163 -0.0766054
3 -6.84339 -2.33424 6.49281
1 -6.6229 2.40503 -6.49973
3 2.63204 -9.53416 0.152112
3 -5.45231 -4.65212 6.60674
3 -1.26542 -7.07678 -6.62996
3 5.06762 -4.65937 6.49746
1 1.34723 -7.11677 -6.58014
3 1.39255 4.17985 8.74556
2 -2.80789 -2.90087 9.06114
3 -3.91487 -0.670965 8.58439
1 4.24042 -0.118481 -8.20604
1 -2.4414 3.23292 -8.64044
3 7.97253 2.99317 -2.31109
2 1.43585 8.59602 2.38158
3 -6.81372 5.3692 -2.06205
2 -8.00189 -3.12878 2.08992
3 -1.43275 -8.74441 -2.07092
1 6.65907 -5.38808 2.07172
1 1.52999 -0.667704 8.69472
3 -0.292961 -1.44557 -8.52745
2 6.91222 3.57829 -4.44396
2 -0.16524 7.63147 4.60159
2 -6.9418 -3.82792 4.23498
2 -0.034441 -7.86782 -4.46216
3 6.62845 -3.78341 4.44275
1 -1.25758 -0.712365 8.78103
2 -1.11809 1.06437 -8.4726
3 8.16887 1.38638 2.16412
3 2.52237 7.70897 -2.21336
3 -5.4313 6.26145 2.15071
2 -2.59662 -7.6673 2.06626
1 5.24111 -6.05167 -2.16384
3 6.59788 0.645795 4.30242
2 2.52611 6.15257 -4.51031
2 -4.24448 5.35176 4.46521
3 -6.61692 -0.800972 -4.44256
3 -2.52833 -6.13299 4.55064
2 4.04843 -5.46929 -4.33947
3 5.25942 0.135163 6.50885
1 2.53043 4.2818 -6.76453
2 -2.69253 4.56889 6.66115
3 -5.36588 0.0224494 -6.61867
2 -2.90715 -4.41942 6.69062
2 2.68452 -4.67745 -6.79956
1 6.69029 5.14185 -2.13414
2 -1.31598 8.41647 2.36375
1 -8.13117 3.20687 -2.08815
2 -6.58326 -5.45033 2.25995
2 1.25781 -8.59112 -2.14969
1 8.17188 -3.03514 1.97394
1 0.263879 1.89864 8.74068
2 6.84934 3.84671 1.97683
3 -0.0243186 7.77462 -2.1033
2 -6.81603 3.85462 2.31023
3 -6.72501 -3.81147 -2.01948
1 -0.0981732 -8.2101 2.19941
3 6.65292 -3.79222 -2.30608
2 5.15956 2.8628 4.41866
1 -0.084297 6.15685 -4.34864
3 -5.4909 3.11093 4.3508
3 -5.39545 -3.4238 -4.18191
2 -0.0111279 -6.17409 4.70559
1 5.33244 -3.10597 -4.52379
1 4.05936 2.39609 6.61694
2 0.0980104 4.7196 -6.64076
3 -3.84827 2.33586 6.58345
2 -4.09456 -2.192 -6.54024
2 -0.0702391 -4.39741 6.86572
1 3.81934 -2.27916 -6.67435
2 5.42213 5.97553 2.47209
1 -2.89081 7.79042 -2.17307
1 -5.43086 -6.25955 -2.10784
2 2.52633 -7.91027 2.15531
2 7.8894 -1.46708 -2.43784
3 4.06649 5.29965 4.40593
3 -2.86297 6.35994 -4.23458
3 -6.99875 0.761669 4.66093
3 -4.0128 -5.58649 -4.26546
2 2.81859 -6.21205 4.42494
2 6.77997 -0.753362 -4.65835
1 2.666 4.55601 6.57732
3 -2.56124 4.79959 -6.56264
3 -5.3669 0.114579 6.44761
2 -2.58683 -4.74186 -6.48387
1 2.44044 -4.60074 6.62712
1 13.4948 0.14216 -0.0469268
1 6.72972 11.3872 -0.0736781
2 -13.414 -0.00154346 0.139499
2 6.91707 -11.6864 -0.0332164
1 6.91806 -3.69255 11.158
2 -6.77391 -3.84082 10.9081
3 0.0251012 -7.65743 -10.8693
3 7.37703 3.91408 -11.0674
3 -6.65414 4.03079 -10.8436
2 12.0181 2.49527 -0.453431
1 12.1835 -0.976692 2.10017
2 3.91466 11.4853 -0.138914
2 5.42515 10.7049 2.11915
1 6.56089 9.83962 -2.20933
1 -8.23362 9.0838 0.111259
3 -5.47133 10.6736 2.27542
2 -6.77806 9.94078 -2.16867
3 -12.1044 -2.31601 -0.0273752
1 -12.1376 -0.765792 2.26194
3 -11.8247 0.728184 -2.13711
2 -3.85149 -11.8588 0.185275
1 -6.59091 -10.3757 2.0522
1 -5.36858 -11.0065 -2.08391
2 8.10448 -9.2338 0.0746045
2 6.70478 -10.0541 2.2067
2 5.36705 -11.1408 -2.1811
3 5.4777 -1.36379 10.9174
2 3.96848 -3.73507 11.0333
2 -2.58536 3.7481 11.1094
2 1.58127 -5.39858 -11.0116
2 -1.35567 -5.54184 -10.9515
1 4.70874 3.92514 -10.5896
3 10.6727 4.64359 -0.149063
2 10.8432 -1.66554 4.28329
3 10.6696 1.41055 -4.61845
3 1.04325 11.4991 0.11958
2 4.00678 9.91618 4.59945
2 6.54349 8.37606 -4.63917
3 -9.4465 6.94509 0.230235
1 -4.16096 9.90222 4.48069
1 -4.4301 8.48106 -4.42193
3 -10.6246 -4.5844 -0.0292232
2 -10.761 -1.5711 4.46219
2 -10.4182 1.53093 -4.34926
2 -6.78541 -8.46383 4.48346
2 -4.08332 -10.2113 -4.27193
2 9.38391 -6.96409 -0.0273394
3 6.7012 -8.47727 4.70862
3 3.98615 -10.3649 -4.1141
2 4.25592 0.788263 11.0036
2 1.35793 -3.71225 11.0406
2 2.99043 -2.98653 -10.8378
2 1.93025 3.95024 -10.3497
3 9.2951 6.84384 -0.276726
2 9.72609 -2.39957 6.54508
2 9.2677 2.22992 -6.74501
1 -1.48992 11.3919 0.025147
3 2.71048 9.34767 6.70892
2 6.54976 6.77718 -6.72615
1 -6.55198 7.02423 -6.61631
2 -9.49384 -6.90452 -0.157576
3 -9.62993 -2.5919 6.46121
2 -9.08592 2.38605 -6.48382
3 1.5135 -11.6818 -0.0048382
3 -6.80066 -6.80048 6.63924
2 -2.65963 -9.33063 -6.61025
2 10.4818 -4.32997 -0.0868366
2 6.66072 -6.77502 6.458
1 2.56624 -9.66882 -6.40671
3 2.61487 3.23827 10.8714
3 -1.00143 -3.63199 10.9955
1 -3.67389 1.00994 11.1354
3 4.51393 -0.993544 -10.9222
2 -3.89592 -0.61392 -10.6551
2 -1.0073 3.86523 -10.7619
2 7.94073 9.02374 -0.0526295
2 8.03136 -3.10739 8.7538
3 7.82275 2.83549 -8.95802
3 -4.37803 11.7539 0.132312
2 1.27779 8.44994 8.72364
3 6.37455 5.08424 -8.89973
2 -11.907 2.19363 0.043892
1 -2.74038 9.40302 6.70673
1 -6.4057 5.33238 -8.76293
2 -7.90315 -9.51609 -0.0225005
1 -8.19039 -3.26812 8.65146
3 -7.91371 3.3567 -8.49096
2 4.04183 -11.6141 -0.00738859
3 -6.61784 -5.31585 8.63862
2 -1.19747 -8.32858 -8.74392
3 12.1097 -2.29317 0.00437918
1 6.63214 -5.2364 8.77273
2 1.41507 -8.44802 -8.6767
2 1.26457 5.40278 11.0938
1 -3.98232 -3.77086 11.1253
3 -5.16271 -1.43973 10.9679
3 5.79837 1.43569 -11.0512
3 -5.13079 1.57943 -10.5782
2 -3.64344 3.97258 -10.7067
3 10.3205 3.27201 -2.1422
3 2.85776 10.654 2.487
2 -7.99819 7.68974 -1.91254
2 -10.8025 -3.24584 2.21989
1 -2.59779 -11.0036 -2.01831
2 8.00097 -7.69322 2.33313
2 2.69815 -1.35932 10.8983
1 -0.11565 -3.09437 -10.8427
2 1.11082 9.94387 4.50871
2 -7.95873 6.06609 -4.13041
3 -9.52501 -3.99895 4.42836
2 -1.41591 -10.2289 -4.14861
3 7.95186 -6.03837 4.40402
2 -0.00292941 -1.18649 11.1358
2 -1.02536 -0.587098 -10.7742
2 7.8305 4.37606 -6.77741
3 -0.040055 9.17856 6.68974
1 -7.87291 4.82744 -6.40348
1 -0.0382913 -9.538 -6.15103
3 7.94764 -4.39812 6.57357
2 -2.54072 -1.15439 10.9446
1 -2.32276 1.50646 -10.7503
1 10.8639 1.46659 2.15718
2 3.79517 9.82698 -2.16476
2 -6.82776 8.48949 2.0886
3 -10.6138 -1.61761 -2.15137
2 -4.11101 -10.109 2.12673
1 6.6214 -8.35095 -2.09366
1 9.38418 0.402329 4.31073
2 3.90082 8.41325 -4.4318
1 -5.51689 7.62636 4.4191
2 -9.18864 -0.929924 -4.3781
2 -4.25991 -8.59171 4.32313
2 5.17804 -7.96857 -4.2619
1 8.00059 -0.0697756 6.52426
1 3.94387 6.81459 -6.58681
3 -3.97107 6.94569 6.27666
1 -7.77328 -0.150874 -6.49922
2 -4.03496 -6.84652 6.69726
2 3.90706 -7.16123 -6.49446
3 6.90586 -0.758108 8.77927
2 3.80724 5.32974 -8.74637
1 -6.77957 0.91871 -8.67705
3 -4.03642 -5.12741 8.75551
2 2.82055 -6.17275 -8.86272
3 9.34018 5.406 -2.27091
1 -0.0194457 10.6955 2.35417
2 -9.30295 5.39339 -1.9221
3 -9.27871 -5.38132 2.18706
2 0.0335343 -10.8416 -2.0027
1 9.30621 -5.51966 2.15179
3 1.61341 1.07705 11.0027
1 1.74658 -0.736218 -10.6569
2 7.9155 6.08859 -4.49374
1 -6.54218 3.72666 -4.32796
2 -8.2041 -6.14005 4.43456
3 9.36115 -3.95203 4.35835
3 -1.2084 0.889917 10.9
3 0.594997 1.67935 -10.779
1 9.48923 3.6761 2.02771
3 1.21567 10.0882 -2.14557
2 -8.04013 6.16177 2.14154
3 -9.43421 -3.77083 -2.15273
1 8.05367 -6.08039 -2.24941
1 8.1491 3.04209 4.26155
2 -6.83894 5.46786 4.52449
3 -7.91895 -3.18266 -4.10745
2 -1.2944 -8.52833 4.40483
3 6.58209 -5.68892 -4.45677
2 6.8735 2.19451 6.43373
1 1.33313 7.05464 -6.49355
1 -5.36376 4.54758 6.50521
2 -6.60621 -2.441 -6.34835
1 -1.48157 -6.60398 6.8651
2 5.45286 -4.73411 -6.49431
2 5.34112 1.54081 8.69665
3 -3.92682 4.0253 8.95741
1 -5.54324 -1.451 -8.48196
3 -1.4982 -5.06327 9.21005
2 4.20262 -3.80603 -8.71448
2 7.88137 7.70595 -2.23757
2 -2.79631 10.7281 2.08689
1 -8.15933 -7.87541 2.01184
3 2.71762 -10.9319 -2.16538
1 10.877 -3.31423 2.29518
3 -0.0402468 3.41038 10.8904
1 3.29914 1.49403 -10.4183
1 8.04956 5.98289 1.98949
2 -1.41459 10.2576 -2.2541
2 -9.49417 3.74529 2.11794
2 -8.22468 -6.27047 -2.21546
3 1.58244 -10.1967 2.29064
1 9.25046 -3.79147 -2.57596
2 6.60944 4.99971 4.68206
1 -1.33185 8.53066 -4.32814
2 -8.22615 3.064 4.31007
3 -6.78579 -5.47527 -4.17057
1 1.1939 -8.54285 4.39549
2 7.89335 -3.15022 -4.72001
2 -1.40918 7.19946 -6.39328
2 -6.73061 2.39924 6.39258
2 1.32595 -7.06557 6.63542
1 6.36015 -2.02601 -7.04238
1 3.96873 3.93092 8.74208
1 -1.03955 5.53828 -8.77305
1 -5.35511 1.6383 8.66768
2 -3.85908 -3.78075 -8.65597
2 1.20856 -5.17244 8.83055
2 -4.16092 10.1193 -2.27532
3 -10.7746 1.53311 2.19637
3 -6.69341 -8.68879 -2.08511
2 4.0777 -10.0437 2.24717
3 10.6427 -1.58266 -2.4203
2 5.43776 7.70124 4.66561
2 -9.53623 0.860202 4.49694
3 -5.44143 -8.06074 -4.2211
3 4.03069 -8.45118 4.34325
3 9.4722 -1.04941 -4.50916
3 4.18125 6.88777 6.65827
2 -4.12109 6.97922 -6.39202
3 -8.16747 0.0534993 6.7394
3 -4.08926 -7.11384 -6.38728
2 3.9451 -7.0161 6.60373
3 -3.79791 5.46339 -8.55886
1 -6.62635 -0.78452 8.6954
3 -2.7495 -6.21454 -8.59568
2 4.00599 -5.24377 8.6739
2 6.7333 0.338935 -8.72105
2 16.1587 0.168185 -0.0496112
1 -7.94168 13.5912 -0.0904657
1 -16.2834 0.142552 0.114862
1 -7.98035 -13.9834 -0.0844973
1 8.1356 -14.042 0.0219237
1 8.22111 -4.69887 13.2565
3 -0.661183 8.74887 13.6434
1 -8.19408 -4.40314 12.9377
1 0.220773 -9.26673 -13.15
1 8.56942 4.68024 -13.4448
3 14.5766 2.27789 0.0784841
2 14.9408 0.8663 -2.20864
2 5.43656 13.885 0.0699517
3 6.64717 12.8698 2.09964
3 7.84868 12.1656 -2.24983
1 -9.50194 11.4779 0.138128
2 -7.06661 12.9664 2.39176
2 -14.7605 -2.4484 -0.0428221
3 -14.7621 -0.702943 2.19348
2 -14.7563 1.13209 -2.21394
1 -5.35718 -13.9593 0.132756
2 -8.08056 -12.515 2.03632
1 -6.56504 -13.2765 -2.20369
1 9.6093 -11.6435 -0.062469
2 8.03377 -12.5126 2.18976
2 6.81123 -13.4786 -2.05076
2 6.66185 -2.25706 13.189
2 5.36799 -4.38663 13.4357
1 -0.229544 7.72318 11.1493
1 1.56856 -7.05767 -13.031
1 -1.30023 -7.04042 -13.16
1 5.88868 4.70051 -13.0432
3 13.3961 4.6504 -0.0997148
3 13.6905 -1.65137 4.39131
1 13.1914 1.43868 -4.32461
1 2.61061 15.1937 2.13088
1 5.34228 12.4007 4.30025
1 7.81909 10.6304 -4.59441
2 -11.7286 7.79634 0.480099
1 -5.67327 12.2823 4.45654
2 -8.03482 10.9012 -4.25133
2 -13.1818 -4.67032 -0.000691239
2 -13.4854 -1.44488 4.27958
2 -13.0321 1.58643 -4.17615
3 -2.49861 -14.1442 0.116401
2 -8.1575 -10.7226 4.21401
1 -5.28678 -12.5988 -4.35118
3 10.7928 -9.27957 -0.0186044
2 8.1624 -10.6955 4.57568
2 5.52809 -12.5548 -4.6447
3 5.47078 0.182191 13.1358
1 2.76099 -4.64159 13.3187
1 2.96296 -4.63085 -13.013
3 -2.60348 -4.65483 -13.0941
2 2.94239 4.65657 -12.6644
1 11.8278 6.9353 0.0881378
1 12.1243 -2.47563 6.44083
2 11.9758 2.11148 -6.59598
3 0.0534629 13.8098 0.0310437
3 4.2114 11.5825 6.47777
2 7.73342 9.23465 -7.1691
2 -4.09141 11.3234 6.55728
1 -7.68541 9.21609 -6.12657
3 -12.1011 -6.95165 0.00933517
1 -12.1297 -2.36092 6.63597
2 -11.842 2.26631 -6.40181
2 0.0193555 -14.011 0.131545
2 -4.00193 -11.8428 -6.52184
2 7.9443 -9.24398 6.80359
3 3.81789 -11.9196 -6.5815
1 4.18811 2.44322 12.9885
3 0.188985 -4.46037 13.2854
1 4.14797 -2.09582 -12.9726
2 -3.78551 -2.213 -13.2196
2 0.246226 4.95627 -13.2024
1 10.6197 9.17761 0.120614
3 10.5861 -3.13009 8.74896
2 10.4713 2.82256 -8.87229
2 -2.77689 13.804 0.243048
3 2.63692 10.9017 8.79614
2 8.06078 7.27209 -9.05843
1 -13.2757 4.24913 -0.367055
3 -2.77449 10.896 8.83959
2 -8.05148 8.16752 -8.55762
2 -10.7247 -9.39432 -0.146263
3 -10.7877 -3.5182 8.62461
3 -10.5746 3.20479 -8.53457
1 1.53096 -16.3345 0.00254888
1 -8.00386 -7.50397 8.73721
2 -2.63681 -10.77 -8.75446
2 13.0719 -4.63506 -0.0986229
1 7.92917 -7.64057 8.61696
3 2.54935 -11.0101 -8.80458
2 2.82887 4.62247 13.1297
1 -2.16173 -5.06802 12.9847
2 -4.91991 0.142512 13.1021
2 5.64716 -0.0686759 -13.203
3 -5.1568 0.144217 -12.9036
2 -2.44622 4.6967 -13.2706
2 9.38206 11.5072 -0.10218
2 9.36026 -3.6073 10.8381
2 9.86616 3.98676 -11.3923
2 -5.65225 13.8463 0.112381
3 1.43483 9.99715 10.6879
2 -14.6053 2.25437 0.0416111
2 -1.53355 8.53889 9.04431
1 -8.02007 6.06744 -11.1822
1 -9.4939 -11.7657 -0.0179355
2 -9.43496 -3.91084 10.7429
3 -9.13085 3.92545 -10.6567
2 5.29927 -14.0777 0.0195297
3 -8.32712 -6.21476 11.0156
3 -1.30188 -10.007 -10.83
2 14.7115 -2.35498 0.0171066
3 8.09929 -6.11523 10.8022
2 1.1442 -10.1615 -10.6736
2 -5.55949 -4.53281 13.0203
2 -6.51773 -1.89093 13.1778
2 6.97657 2.3557 -13.161
1 -6.37106 2.3603 -12.8876
1 -5.17658 4.62226 -12.8788
1 3.97052 12.9141 2.23663
2 -9.36145 10.1067 -2.05407
2 -13.4564 -2.94519 2.1182
2 -4.01898 -13.2469 -2.07938
2 9.51612 -10.0137 2.18607
1 4.08311 -2.09047 13.2053
3 0.0930581 -4.60022 -13.0017
2 11.7759 3.68264 -4.34011
1 2.79457 12.4499 4.57009
2 -9.09594 8.40087 -4.11557
2 -12.1202 -4.01577 4.43598
3 -2.52436 -12.4003 -4.25702
2 1.3484 -2.12101 13.2374
2 -1.35326 -2.51497 -13.0549
2 10.4356 4.49731 -6.58321
3 1.48004 11.4111 6.73094
1 -9.25694 7.11219 -6.20442
2 -10.828 -4.80723 6.60096
2 -1.34207 -11.8753 -6.39551
2 9.28108 -6.98872 6.46566
1 -1.34686 -2.32809 13.2668
2 -2.34478 -0.027124 -12.8134
3 9.23084 5.06029 -8.9321
2 -0.179702 10.7614 8.7705
2 -9.00594 5.62986 -8.50858
3 -9.39355 -5.49218 8.76414
1 -0.0363323 -10.6762 -8.41422
1 9.35905 -5.34297 8.68809
2 -3.93536 -2.19812 13.0841
3 -3.79977 2.45983 -13.0627
2 13.3928 1.28109 2.17861
1 5.17849 12.29 -2.10955
1 -8.00734 10.6875 2.10709
2 -13.1343 -1.30415 -2.03416
3 -5.41976 -12.6633 2.24775
1 7.99517 -10.7708 -2.15719
1 12.2367 0.637254 4.22488
1 4.99158 10.8264 -4.40153
3 -6.92047 9.84237 4.4061
2 -11.7919 -0.830841 -4.38917
2 6.66268 -9.91424 -4.13764
3 10.7995 -0.0579905 6.49357
1 5.07362 9.43558 -7.42098
1 -5.51366 9.10723 6.93258
3 -10.3383 -0.00249399 -6.60909
3 -5.3535 -9.03563 6.6128
3 5.2988 -9.50796 -6.37901
1 9.39537 -0.840338 8.73641
2 5.3774 7.56401 -8.95388
2 -5.34431 -7.67467 8.825
1 4.14109 -8.60855 -8.6047
3 5.93994 6.25666 -11.1031
2 -2.75194 6.38569 8.71884
3 -7.89485 1.73538 -10.7407
3 -5.61728 -5.9699 10.877
2 12.0293 5.19904 -2.11755
2 1.44742 12.9231 2.43676
3 -10.5048 7.79591 -1.84465
1 -11.6572 -5.62842 2.25551
2 -1.22427 -13.1219 -2.11878
2 2.72736 0.242135 13.284
1 1.53404 -2.31488 -12.9628
2 10.5454 6.11572 -4.43927
2 -0.130067 12.249 4.50894
2 -10.5062 6.16464 -4.00823
2 0.131497 -12.4522 -4.26665
2 10.5973 -6.24036 4.25717
3 0.005499 0.142228 13.3015
1 0.339965 0.0691244 -12.8262
3 9.13649 6.75459 -6.73149
3 -1.3455 11.5131 6.70208
2 -10.4467 4.71419 -6.53237
2 -9.4789 -6.93291 6.49181
2 1.31804 -11.9434 -6.58337
3 10.7006 -4.73493 6.52243
1 -1.01906 2.55378 -13.0528
2 12.1661 3.70653 1.84332
2 2.51918 12.2623 -2.25384
3 -9.55633 8.61302 2.27655
3 -11.8387 -3.64597 -2.12841
2 -2.72134 -12.601 2.33557
1 9.52359 -8.33465 -2.11753
1 10.8471 2.93495 4.35194
3 2.36906 10.8216 -4.36187
2 -8.41193 7.61875 4.4606
2 -2.52894 -10.7379 4.27851
3 8.1109 -7.81355 -4.2985
3 9.45956 2.19847 6.36929
2 2.57744 9.30257 -6.59448
2 -7.14895 7.05462 6.97887
3 -2.62646 -9.16967 6.49807
1 6.77984 -7.39144 -6.32787
1 8.14941 1.61629 8.58227
1 -5.24305 6.54304 8.35357
3 -2.53298 -7.65588 8.87751
2 5.62286 -6.36049 -8.52965
2 6.8419 0.850275 10.9088
2 3.15452 6.58419 -10.7357
2 -6.51925 -0.663239 -10.681
2 -2.9791 -6.18972 10.8971
2 4.2898 -5.45857 -10.7803
2 10.6308 7.86582 -2.20992
1 -1.42375 13.0053 2.28522
1 -11.9695 5.54424 -1.97273
2 -10.6975 -7.82917 2.1564
2 1.62201 -13.3703 -2.07197
3 11.877 -5.64378 2.00531
2 1.14648 2.43172 12.9599
2 3.09405 0.334283 -13.0277
1 9.27564 8.20081 -4.45808
2 -2.85516 12.1286 4.23843
2 -11.7298 3.7949 -4.12419
2 -9.45068 -8.43115 4.33918
2 2.70222 -12.4634 -4.28482
1 -1.65787 2.20607 12.8046
2 1.63914 2.46214 -12.8201
2 10.6823 5.934 2.11756
3 -0.359306 12.4216 -2.04608
1 -10.7304 6.16649 2.2508
1 -10.6907 -5.99932 -2.26415
2 9.33395 5.68353 4.46958
3 -0.0197661 10.8898 -4.37435
3 -9.52593 5.44985 4.79103
2 -9.32386 -5.14806 -4.36159
2 0.0956627 -10.9299 4.28365
3 9.143 -5.56054 -4.74331
2 8.36504 4.46862 6.5251
3 0.045023 9.49686 -6.42007
2 -8.12683 4.74889 6.9899
2 -7.8157 -4.77363 -6.45057
2 -0.161636 -9.38823 6.63431
3 8.04834 -5.11621 -6.66127
1 6.74278 4.00279 8.44923
2 0.190318 7.94936 -8.5971
2 -6.58046 3.88446 8.61938
2 -6.73865 -3.81418 -8.77683
2 -0.0111281 -7.77829 8.8124
2 6.95883 -3.93705 -8.71703
3 5.50863 3.27619 10.9873
2 0.501275 6.21379 -10.7549
1 -5.13995 3.29145 11.0891
2 -5.27308 -2.97113 -10.9165
1 -0.230255 -5.94114 11.0662
2 6.00645 -3.11558 -11.0467
3 -4.35049 12.9471 2.31096
3 -9.35094 -10.2449 2.06052
2 13.4773 -3.28889 2.16296
2 -0.107248 4.62146 13.2625
1 4.34778 2.51728 -12.8858
3 9.15448 8.27542 2.05479
2 -2.82344 12.2567 -2.13263
3 -12.0556 3.79515 2.20087
3 -9.19794 -8.553 -2.15448
2 2.62871 -12.5408 2.2326
1 11.6904 -4.05234 -2.14641
1 8.10742 7.95462 4.45211
3 -2.7035 10.8555 -4.2562
1 -10.7748 3.0723 4.34151
1 -7.97732 -7.84963 -4.18852
2 2.58734 -10.7407 4.47077
1 6.87114 6.85613 6.5784
2 -9.44506 2.38505 6.71223
2 -6.62434 -7.17919 -6.18087
1 9.35384 -2.51125 -6.70986
3 5.36413 6.21096 8.72789
2 -2.56582 7.78919 -8.70889
2 -7.8933 1.51571 8.84562
2 2.68872 -7.80796 8.83149
1 8.08696 -1.72788 -8.896
1 3.85288 5.33764 10.8697
2 -2.26708 6.23759 -10.9551
2 -6.28977 0.987063 10.8955
2 -3.78934 -5.32796 -10.8559
2 2.61724 -6.18348 11.1312
3 6.81591 -0.731304 -11.0481
3 -5.47217 12.2697 -1.92131
2 -13.4165 1.63142 2.35861
2 -8.0445 -10.8497 -2.42601
3 5.21839 -12.3247 2.26688
2 13.3369 -1.78584 -2.21661
2 6.76961 8.22553 2.19691
2 -5.32607 11.4951 -4.27941
3 -12.165 0.916032 4.44993
1 5.17925 -10.705 4.52238
2 11.9732 -0.995923 -4.29345
1 5.54392 9.18694 6.64986
1 -5.25924 9.32299 -6.69765
3 -10.9816 0.115257 6.5715
2 -5.32194 -9.51041 -6.55156
1 5.02727 -9.26625 6.71911
2 10.8283 -0.27282 -6.49183
2 4.12553 8.57977 8.70791
3 -9.24592 -0.749488 8.65994
2 -4.10578 -8.52195 -8.66636
3 5.28648 -7.62018 8.91472
1 9.31012 0.65215 -8.70587
2 2.83883 7.88197 10.8293
2 -5.08462 6.09648 -10.7641
2 -7.79374 -1.47444 10.8354
3 -2.55018 -7.62175 -10.8031
2 5.35636 -5.97085 10.984
2 18.867 -0.139327 0.172278
3 9.3094 15.9568 -0.132017
3 -9.51666 16.2261 0.0244969
2 -19.0199 0.226314 -0.0416492
1 9.61941 -16.3896 -0.072631
1 9.36635 -5.4838 15.5573
1 -0.28362 10.2134 15.7658
3 -9.42066 -5.09403 15.2363
2 0.0917934 -10.9152 -15.3411
1 9.62337 5.60423 -15.5242
1 -8.96419 5.63709 -14.7969
1 18.4108 3.14005 -1.19907
2 17.1886 -0.889064 2.21095
3 17.4761 0.815674 -2.07165
2 6.81867 16.1592 -0.323896
2 8.1918 15.0929 2.13867
2 9.19608 14.392 -2.17115
1 -10.5008 13.8749 0.471743
1 -8.98399 15.0212 2.30436
2 -9.40435 14.6885 -1.95834
2 -17.5671 -2.34988 0.00597951
3 -17.5198 -0.768384 2.17607
3 -17.4594 0.929129 -2.12493
3 -6.58716 -16.3518 0.132459
3 -9.48129 -14.6062 2.43621
2 -8.04226 -15.6716 -2.25499
3 10.8116 -14.0565 0.0330467
1 9.33007 -14.8233 2.20166
1 8.08485 -3.01616 15.2042
2 6.85374 -5.25478 15.4542
2 1.10202 -8.4485 -15.4188
1 6.85011 5.4359 -15.4096
3 15.832 4.86398 -0.0621427
2 16.1166 -1.78608 4.31298
3 16.043 1.57988 -4.41299
1 3.84018 16.2295 0.0308929
2 6.67909 14.4691 4.2117
1 9.07077 12.9617 -4.42409
2 -11.9396 11.6956 0.309121
1 -7.18345 14.4651 4.46897
2 -9.30159 13.0684 -4.1964
1 -16.2137 -1.44499 4.28602
1 -16.027 1.58301 -4.2864
1 -3.98144 -16.4306 0.00174543
2 -9.63637 -13.1971 4.52419
3 -6.67521 -14.9621 -4.32046
2 12.1594 -11.7053 0.290256
2 9.15611 -13.3775 4.41425
3 6.8 -14.6834 -4.42342
1 4.07533 -5.25078 15.5792
1 2.56673 -6.14834 -15.4254
2 -2.61143 -6.17861 -15.2524
1 4.2163 5.42706 -15.0586
2 14.3665 6.95835 -0.238625
1 14.857 -2.47308 6.72058
1 14.7329 2.24676 -6.51798
2 1.32094 16.01 -0.0902691
1 5.38989 13.8227 6.4584
2 9.25547 11.4243 -6.71676
3 -13.6457 9.37548 0.002999
2 -5.45654 13.6965 6.73938
2 -9.30092 11.5589 -6.34062
2 -14.8588 -6.89869 -0.070237
2 -14.8999 -2.08288 6.45996
1 -14.5013 2.54833 -6.3981
3 -1.21636 -16.3852 0.00344921
2 -9.16466 -11.2978 6.57338
3 -5.26473 -14.1627 -6.54907
2 13.3436 -9.1746 0.191377
2 9.30027 -11.5039 6.64917
1 5.5731 -13.9897 -6.58037
1 1.13615 -5.29252 15.2858
2 -3.89384 2.72169 13.2632
3 4.00227 -3.5305 -15.3126
3 -3.76848 -3.84569 -15.254
3 13.3202 9.24879 -0.312706
1 13.3024 -3.2925 8.8603
1 3.96427 13.1301 8.90405
2 9.24044 9.687 -9.155
2 -14.7635 7.04125 0.104043
3 -3.87257 13.1337 8.67801
2 -13.5603 -9.3209 0.182881
2 -13.5803 -3.19815 8.66301
2 -13.2046 3.19458 -8.61452
2 -9.38582 -9.8751 8.746
3 -3.91547 -13.1179 -8.63968
1 14.2984 -6.81519 0.131982
3 9.22659 -10.1398 8.86981
3 4.05699 -13.3783 -8.72596
2 4.26991 3.92277 15.3164
3 -1.36597 -5.17498 15.3366
1 -5.06184 1.80133 15.4196
3 5.2117 -1.31086 -15.3715
3 -5.25769 -1.5443 -15.211
1 -0.889942 5.70298 -15.4255
3 12.1318 11.5411 -0.0977131
1 12.3728 3.55304 -10.9305
1 -4.32905 15.9528 -0.0839439
3 2.67733 12.2275 11.0524
1 -15.9362 4.87087 0.0402087
2 -2.53731 12.3372 11.0709
3 -9.16002 8.45547 -10.8871
2 -12.2097 -11.9828 0.115369
2 -12.1787 -3.91427 10.7223
2 -11.7123 4.13087 -10.597
2 -9.44802 -8.51882 11.0618
2 15.8387 -4.69752 -0.155039
2 2.63463 -12.4126 -10.9539
3 2.90897 6.15368 15.1518
1 -3.97845 -5.05876 15.0195
1 -6.41778 -0.441246 15.4669
3 6.75628 0.988269 -15.3063
1 -6.57605 0.810437 -15.032
3 8.0321 13.6126 0.0110964
1 10.7344 -4.57947 13.1509
2 11.2119 5.0187 -13.7064
2 -7.13307 16.1261 0.172869
3 1.22821 10.7545 13.5225
2 9.69405 7.1988 -13.1698
1 -17.5152 2.55786 0.0425383
3 -1.34357 10.1318 11.2545
2 -10.5517 -13.8502 -0.0306856
2 -10.9915 -4.21909 13.0726
2 -9.87566 4.81596 -12.7879
2 6.88715 -16.3827 0.046906
2 -9.78959 -6.68528 13.0583
2 -1.42108 -11.6842 -13.0907
3 17.2758 -2.35971 0.17996
2 9.5859 -6.82156 13.2416
3 1.36173 -11.709 -13.2457
3 1.46488 8.54312 15.0428
1 -6.6325 -5.14095 15.3445
2 -8.06029 -2.81097 15.4707
3 8.21147 3.14846 -15.4053
1 -7.94847 3.29895 -14.9924
2 -6.53007 5.37937 -15.3939
1 16.0946 3.10507 -2.07049
1 5.39933 15.3046 2.15622
2 -10.7712 12.257 -2.10475
2 -16.1647 -2.90307 2.06581
2 -5.45605 -15.7618 -2.14569
3 10.6386 -12.4318 2.26049
3 5.4391 -2.94449 15.4482
2 0.0283379 -6.12721 -15.1106
2 14.7126 3.87817 -4.36533
3 -10.6246 10.683 -4.32309
2 -14.8204 -3.72968 4.19758
3 -3.99118 -14.9594 -4.3
2 10.864 -10.9549 4.50438
1 2.76697 -2.91416 15.5066
1 -1.265 -3.73759 -15.23
1 13.41 4.56561 -6.63844
3 2.67268 13.776 6.77168
1 -10.4049 9.43979 -6.69413
1 -13.5532 -4.97264 6.55522
1 -2.69961 -14.0204 -6.39778
1 10.666 -9.24609 6.48909
2 -0.0387722 -3.14741 15.5155
1 -2.60732 -1.35481 -15.1691
1 11.9539 5.1944 -9.03788
2 1.24535 13.1263 8.91694
3 -10.5343 7.60747 -8.63315
2 -1.39224 -12.9817 -8.9956
1 10.7278 -7.83675 8.75754
2 -2.64784 -2.97131 15.4356
1 -3.88669 0.789391 -15.3506
3 10.966 6.21326 -11.2736
3 0.155284 12.2623 11.3742
3 -10.41 6.12308 -10.6276
3 -10.8935 -6.2514 10.8878
2 0.019506 -12.4914 -11.1259
2 10.6593 -6.16731 10.9593
2 -5.33061 -2.56329 15.4385
1 -5.24018 3.06228 -15.2567
2 16.1849 1.76676 2.20845
1 6.6378 14.4477 -2.16167
2 -16.0111 -1.28133 -2.02056
1 -6.64093 -14.743 2.26561
1 9.53568 -13.3556 -2.16069
2 14.7946 0.587017 4.29444
1 6.31502 12.9699 -4.38731
2 -8.39711 11.9626 4.46493
2 -14.6327 -0.780298 -4.09914
1 -6.85151 -13.1202 4.34222
1 8.07349 -12.4253 -4.30809
1 13.5326 -0.138954 6.46901
2 6.31243 11.3867 -6.48641
3 -6.8567 11.3101 6.59306
1 -12.9179 -0.00824806 -6.26173
1 -6.7496 -11.4732 6.15835
2 6.78239 -11.7949 -6.75163
3 12.218 -0.608514 8.63075
3 6.62511 9.97438 -9.54744
2 -5.31266 10.9645 8.62615
2 -11.785 0.812013 -8.75679
2 -6.55337 -9.91379 8.73979
1 5.34809 -11.0434 -8.67056
2 10.8582 -1.40275 10.7977
2 7.90156 8.35334 -11.2463
2 -3.9693 9.96005 10.778
1 -10.516 1.69588 -10.8013
2 -6.73293 -8.32104 10.9403
2 4.01952 -10.052 -10.7879
3 9.35924 -2.22791 12.9883
1 -2.91683 8.5321 12.502
1 -9.30532 2.50029 -12.9111
3 -6.80113 -6.7269 13.1004
2 2.66106 -9.51431 -12.9618
2 -11.9978 10.044 -1.77178
2 -14.7871 -5.31275 1.98857
2 -2.56613 -15.4483 -2.07981
1 12.1707 -10.1603 2.29885
2 4.29297 -0.51317 15.2333
1 1.4009 -3.6977 -15.1681
2 13.3441 6.00074 -4.25257
3 1.13875 14.5232 4.35788
2 -11.8904 8.49628 -3.99631
2 -13.3731 -6.25381 4.55426
1 -1.24252 -14.6677 -4.19842
2 11.9496 -8.60529 4.2683
1 1.40144 -0.58888 15.3256
2 0.0565728 -1.32181 -15.026
1 11.9044 6.71308 -6.71339
1 0.0306065 13.7462 6.67767
3 -11.8883 7.04329 -6.266
3 -12.0995 -7.02644 6.65744
2 0.0903922 -14.0332 -6.57338
2 12.0913 -7.04776 6.58976
3 -1.30119 0.786347 -15.0906
3 10.4953 7.51994 -9.08812
1 -1.26146 13.0829 8.87408
3 -11.78 5.71878 -8.44516
1 -10.7239 -7.688 8.79356
2 1.47357 -13.361 -9.00968
2 11.9277 -5.47459 8.67967
3 -3.71569 -0.420518 15.5865
2 -2.57703 3.03183 -15.3193
1 14.7287 4.02079 2.05448
2 3.8135 14.543 -1.91116
2 -10.4361 11.2088 2.58691
1 -14.7535 -3.65799 -2.17897
2 -4.04164 -14.8905 2.0999
2 11.1986 -10.6024 -2.36944
3 13.5044 2.96591 4.2511
2 -13.0651 -3.05654 -4.20974
3 -4.30898 -13.1262 4.25721
2 9.46388 -9.99729 -4.657
2 12.1816 2.22872 6.34529
3 3.7297 11.812 -6.48126
2 -8.43298 9.29932 6.54664
1 -11.6979 -2.38213 -6.30345
2 -4.1131 -11.399 6.36944
3 7.93031 -9.54209 -6.54428
2 10.8715 1.77602 8.49023
3 2.80284 7.93393 -8.66381
1 -6.81426 8.36445 9.15604
2 -10.4191 -1.49663 -8.82046
2 -3.95631 -9.97899 8.73252
2 6.72173 -8.82976 -8.52514
2 9.63395 0.896983 10.4889
1 -4.21097 7.41585 10.4445