3997
 Atoms. Timestep: 6000
2 0.159485 -0.078395 0.0323903
3 2.68827 0.014028 0.0509456
2 1.33174 2.32194 -0.157469
2 -1.22507 2.3657 -0.0862938
1 -2.71437 -0.0322984 -0.0738529
3 -1.23205 -2.44496 0.165406
2 1.36889 -2.39023 0.0464583
2 1.55326 -0.853874 2.1398
2 0.122659 1.54899 2.14347
2 -1.26975 -0.813745 2.21251
2 -0.105957 -1.60528 -2.10537
1 1.43097 0.919259 -2.14009
3 -1.21087 0.7928 -2.24341
1 5.41946 -0.0845439 -0.0200848
1 2.59714 4.60046 0.00997122
3 -2.66346 4.69191 -0.0107979
2 -5.56842 -0.0628042 -0.035188
2 -2.75165 -4.71692 0.163982
3 2.62745 -4.63029 0.0837038
2 2.81033 -1.58402 4.44766
2 0.0901936 3.04431 4.32961
2 -2.63992 -1.58679 4.41233
2 -0.0029137 -3.17665 -4.28115
3 2.68582 1.58183 -4.32979
3 -2.59182 1.42818 -4.38613
1 4.12025 2.34722 0.0456258
2 4.12297 -0.821855 2.13483
3 4.11168 0.755191 -2.10619
1 0.00319443 4.60481 0.0119299
1 1.34056 3.86238 2.24461
2 2.76459 3.05819 -2.24295
1 -4.04662 2.21435 0.0290598
2 -1.37053 3.90669 2.18567
1 -2.67478 3.03676 -2.17419
1 -4.13805 -2.32429 0.0397251
1 -4.09371 -0.746513 2.28013
1 -3.99916 0.636365 -2.19967
3 -0.0254789 -4.65326 0.123328
2 -2.72352 -3.16038 2.28952
2 -1.37899 -3.85132 -1.99499
3 3.91354 -2.29627 0.0723523
2 2.69323 -3.25586 2.30972
2 1.33768 -4.08853 -2.02059
3 1.45268 0.705499 4.38155
2 0.122375 -1.52276 4.4569
1 -1.2718 0.77625 4.42646
2 1.20453 -0.828245 -4.44592
1 -1.42117 -0.856552 -4.30658
2 -0.0163089 1.72162 -4.38688
3 2.82232 1.49871 2.30196
3 0.0436928 3.1856 -2.27974
1 -2.64624 1.60822 2.3429
3 -2.67612 -1.6832 -2.16486
2 0.0787273 -3.24079 2.31516
2 2.58748 -1.60649 -1.96119
2 8.0799 -0.10924 -0.212521
1 4.00907 7.03242 0.0138666
1 -3.99435 6.96611 0.0314483
1 -8.11708 -0.240452 0.142697
1 -4.10334 -6.97767 0.120189
3 3.98213 -6.85851 -0.0340167
1 4.02075 -2.29101 6.66484
2 0.162954 4.51209 6.64854
2 -4.00873 -2.27921 6.67341
3 -0.0601914 -4.53628 -6.61815
2 4.15653 2.24269 -6.52523
3 -3.99285 2.23473 -6.49551
3 6.80109 2.15303 0.0665488
1 6.91642 -0.676504 2.31563
3 6.69509 0.713211 -2.2424
3 1.27232 7.01515 -0.00679586
1 2.72541 6.21707 2.27137
3 4.08804 5.42309 -2.10086
1 -5.47424 4.67563 -0.0534762
3 -2.67353 6.20494 2.27704
1 -3.96526 5.3842 -2.30858
3 -6.71944 -2.39094 0.12621
1 -6.7667 -0.814601 2.26804
1 -6.76398 0.606587 -2.18995
1 -1.17295 -7.06951 0.0210065
3 -4.16116 -5.36009 2.35139
1 -2.58801 -6.18622 -2.12618
2 5.46716 -4.67864 -0.119478
2 4.14897 -5.49883 2.22105
3 2.695 -6.34048 -2.12028
2 2.79482 -0.0530964 6.5976
3 1.34427 -2.23859 6.7022
2 -1.25387 2.22225 6.63885
3 1.31576 -2.21604 -6.5958
2 -1.37569 -2.3845 -6.57286
3 1.46459 2.26582 -6.6158
1 5.41147 4.55233 0.0657733
2 5.47616 -1.60864 4.58787
3 5.48242 1.56383 -4.42237
2 -1.32521 7.0333 0.0592838
3 1.42994 5.46376 4.56572
1 3.91121 3.96311 -4.2833
2 -6.58458 2.32633 0.0684039
2 -1.21871 5.35207 4.34174
2 -3.90865 3.79127 -4.49388
3 -5.44918 -4.64518 0.0375672
2 -5.36637 -1.51824 4.53797
1 -5.29744 1.4398 -4.42888
2 1.37336 -7.03631 -0.0457929
2 -4.02165 -3.84048 4.50632
1 -1.2963 -5.45633 -4.51874
1 6.73381 -2.44446 -0.0264376
2 4.17825 -3.90569 4.47822
1 1.44034 -5.56128 -4.44924
1 1.3559 2.20925 6.5973
1 -1.34656 -2.39094 6.57469
2 -2.70093 0.0074172 6.79613
2 2.70916 -0.114204 -6.49544
2 -2.73844 -0.123736 -6.51782
2 -1.31333 2.20632 -6.66715
1 5.60282 2.95285 -2.14536
2 0.0399818 6.27833 2.16744
3 -5.26102 2.95602 -2.27347
2 -5.35828 -3.03672 2.23932
1 0.0404939 -6.27793 -2.31702
2 5.49721 -3.07215 2.2077
2 0.172434 -0.0982036 6.4798
2 0.0675371 0.0135524 -6.80408
1 5.442 1.62023 2.31481
3 1.22956 5.32628 -2.15723
2 -4.0735 3.9773 2.00581
1 -5.36078 -1.69127 -2.13998
1 -1.42597 -5.36748 2.29809
1 3.99922 -3.87743 -2.01876
1 4.10442 0.81649 4.48476
2 1.39891 3.82887 -4.42514
2 -2.73294 3.18996 4.46722
3 -4.01395 -0.886609 -4.30444
2 -1.41583 -3.97737 4.46655
1 2.56136 -3.09803 -4.38959
3 4.15485 3.83902 2.19823
2 -1.22134 5.40796 -2.1058
3 -5.42864 1.5346 2.24735
2 -4.05304 -4.00299 -2.0368
1 1.40981 -5.58674 2.2011
2 5.32429 -1.4689 -2.12983
3 2.84581 3.01922 4.45372
1 -1.2901 3.94173 -4.38105
1 -4.11018 0.70347 4.49759
2 -2.83066 -3.23986 -4.31259
2 1.52926 -3.89436 4.51444
1 3.91121 -0.851931 -4.2601
2 10.7425 -0.082618 -0.130201
3 5.36178 9.32879 0.127855
1 -5.38575 9.37425 0.0495238
2 -10.7978 -0.0900536 -0.136302
1 -5.43505 -9.26615 0.0783078
1 5.28331 -9.24192 0.0992118
1 5.49058 -3.10423 8.75514
2 -0.0190509 6.18094 8.74382
2 -5.46117 -3.28827 8.82764
2 -0.253854 -6.06931 -8.9036
3 5.40282 3.09502 -8.77087
1 -5.37254 3.06149 -8.81082
3 9.4111 2.2137 0.0474589
2 9.46945 -0.925934 2.28955
2 9.35613 0.777869 -2.30058
1 2.55433 9.39821 0.0229325
1 4.01919 8.60428 2.28124
2 5.21859 7.70768 -2.02783
2 -6.73443 7.02857 -0.0401938
1 -3.99886 8.47282 2.23032
1 -5.46032 7.68704 -2.32692
1 -9.40363 -2.56766 -0.0992241
2 -9.57384 -0.837284 2.14253
1 -9.37205 0.563775 -2.18286
3 -2.7946 -9.4 -0.0464666
2 -5.38649 -7.71121 2.3584
3 -4.0792 -8.60571 -2.18251
1 6.84468 -7.0728 0.00258934
3 5.46569 -7.80334 2.36242
2 3.9565 -8.67361 -2.19168
2 4.20163 -0.952772 8.78993
3 2.80639 -3.14936 8.87494
2 -1.26419 3.95401 8.91426
2 1.39664 -3.96361 -8.62539
1 -1.4634 -3.90985 -8.74395
2 2.69773 3.02353 -8.65615
2 8.23596 4.58789 -0.0984462
1 8.29286 -1.59558 4.4853
3 7.99062 1.61007 -4.37148
2 0.0567808 9.49594 0.0536973
1 2.72148 7.81632 4.61957
2 5.35369 6.19971 -4.12618
3 -8.03845 4.5938 -0.0750733
3 -2.69268 7.76834 4.42654
3 -5.28852 6.28082 -4.56194
3 -8.02201 -4.70957 -0.14441
3 -7.96014 -1.67423 4.48018
3 -8.011 1.53669 -4.39617
3 0.0788553 -9.35151 0.120389
2 -5.39685 -6.36987 4.63049
1 -2.73227 -7.80073 -4.33462
2 8.24705 -4.70943 -0.0701136
2 5.48669 -6.24162 4.41074
2 2.70746 -7.79021 -4.45815
2 2.61451 1.59394 9.01492
3 0.0550623 -3.04677 8.88431
1 -2.65645 1.61848 8.98019
2 2.75205 -1.58449 -8.86133
2 -2.5887 -1.51933 -8.74483
3 0.0438493 3.11794 -8.80964
2 6.73453 6.96654 -0.0672492
1 6.82712 -2.3711 6.59108
3 6.95577 2.28685 -6.64122
2 -2.69814 9.30906 -0.112678
1 1.45995 6.96679 6.76138
2 5.32517 4.54418 -6.6046
2 -9.40167 2.2115 0.0779473
2 -1.33305 6.98757 6.53174
2 -5.27347 4.54058 -6.72098
2 -6.73726 -6.9661 0.0885788
3 -6.7301 -2.3607 6.63196
1 -6.7497 2.39867 -6.65032
3 2.72156 -9.28769 0.0856029
3 -5.32371 -4.66846 6.63529
3 -1.34636 -6.93944 -6.62396
1 9.48741 -2.38336 -0.0600459
3 5.20772 -4.7154 6.56242
1 1.39822 -6.8516 -6.88517
3 1.40119 3.95594 8.89646
2 -2.55353 -3.2025 8.82155
3 -3.9718 -0.941549 8.88508
1 4.15985 0.826976 -8.69313
2 -4.06018 0.859053 -8.84598
1 -2.57797 3.11542 -8.83224
3 8.1314 3.12516 -2.2296
2 1.32344 8.53817 2.25797
3 -6.77561 5.46298 -2.20437
2 -8.17859 -3.18301 2.2961
3 -1.27145 -8.48464 -2.22962
1 6.68342 -5.40328 2.14977
1 1.47362 -0.698233 8.86156
3 0.0552909 -1.6078 -8.83993
2 6.67517 3.79364 -4.38754
2 -0.00511135 7.63992 4.35452
3 -6.59431 3.85264 -4.49253
2 -6.73341 -3.89899 4.55047
2 -0.145265 -7.7996 -4.42088
3 6.78307 -3.84622 4.27744
1 -1.35241 -0.890203 8.84684
2 -1.18499 0.696413 -8.88528
3 8.04995 1.56505 2.22104
3 2.67431 7.97702 -2.125
3 -5.46257 6.2186 2.19416
1 -8.03546 -1.78754 -2.23824
2 -2.71606 -7.76219 2.1821
1 5.38373 -6.25333 -2.30424
3 6.75544 0.741078 4.51877
2 2.53598 6.19746 -4.24945
2 -3.92162 5.42915 4.34321
3 -6.71103 -0.81568 -4.2707
3 -2.74388 -6.20727 4.55458
2 4.13832 -5.56585 -4.39923
3 5.44973 -0.0490156 6.67893
1 2.73605 4.58981 -6.54976
2 -2.57937 4.58241 6.69146
3 -5.38335 0.00879311 -6.59957
2 -2.46447 -4.55479 6.71501
2 2.82567 -4.64617 -6.7134
1 6.85425 5.47577 -2.20034
2 -1.4696 8.58778 2.22674
1 -7.89995 3.09003 -2.23866
2 -6.70592 -5.34553 2.31774
2 1.30369 -8.64951 -2.08556
1 8.15552 -3.18572 2.24237
1 0.0454507 1.61195 8.8714
1 1.34995 0.791575 -8.79428
2 6.79651 3.83442 2.1801
3 -0.00180452 7.92609 -2.0232
2 -6.66412 3.76864 2.10295
3 -6.72693 -4.00689 -2.2916
1 -0.0452038 -7.73355 2.32567
3 6.77868 -3.86142 -2.31813
2 5.291 3.13843 4.35912
1 -0.0341116 6.36783 -4.27627
3 -5.34654 3.14859 4.30612
3 -5.48752 -3.17119 -4.39083
2 0.0361774 -6.1477 4.44499
1 5.36645 -3.30203 -4.30784
1 4.03431 2.36108 6.65628
2 0.0896681 4.54774 -6.69254
3 -3.96579 2.32466 6.64863
2 -4.12203 -2.39369 -6.38571
2 0.141951 -4.65067 6.74823
1 4.03699 -2.43772 -6.63433
2 5.37249 6.19127 2.24701
1 -2.7038 7.74378 -2.14009
2 -8.16585 1.45908 2.41128
1 -5.46554 -6.34352 -2.1611
2 2.84271 -7.8506 2.13737
2 8.12175 -1.60935 -2.39989
3 4.21473 5.40655 4.45312
3 -2.61536 6.13325 -4.407
3 -6.80501 0.617256 4.475
3 -4.04338 -5.57958 -4.35705
2 2.87068 -6.27535 4.41278
2 6.79945 -0.694244 -4.56956
1 2.72408 4.66611 6.56182
3 -2.55672 4.62596 -6.59781
3 -5.37266 -0.102478 6.6731
2 -2.86177 -4.75528 -6.54083
1 2.68975 -4.79557 6.56684
1 5.49214 0.0394233 -6.45865
1 13.3962 0.0137221 0.0358657
1 6.69542 11.6802 0.054175
2 -6.59432 11.6062 -0.0391513
2 -13.3858 -0.0570574 0.0059294
2 -6.76247 -11.5678 0.0192852
2 6.66088 -11.6587 -0.0505924
1 6.79956 -3.80967 11.09
2 0.0289651 7.88128 11.1188
2 -6.56732 -3.98329 10.8805
3 -0.115212 -7.76241 -10.8865
3 6.75528 3.9219 -11.0128
3 -6.72201 3.77317 -11.1205
2 12.1941 2.31701 0.123625
1 12.1821 -0.809251 2.33547
2 12.1046 0.655068 -2.2475
2 4.01782 11.5646 0.0619319
2 5.37333 10.9537 2.25618
1 6.67136 10.092 -2.13409
1 -8.10838 9.20707 -0.000394452
3 -5.28756 11.0096 2.13429
2 -6.8521 10.151 -2.23196
3 -12.0553 -2.44347 -0.134018
1 -11.9975 -0.764328 2.17518
3 -12.2256 0.795882 -2.15394
2 -4.14653 -11.6012 0.0246178
1 -6.82015 -10.138 2.28321
1 -5.32025 -10.8197 -2.14966
2 7.93826 -9.35157 -0.0344082
2 6.8217 -10.1493 2.23049
2 5.33219 -10.8681 -2.30258
3 5.4406 -1.51784 11.0415
2 4.11469 -4.12208 11.1075
2 -1.29617 5.43948 11.0668
2 1.26797 -5.49949 -11.1272
2 -1.49022 -5.54613 -11.1532
1 4.19784 4.00832 -11.0718
3 10.7871 4.68254 0.13743
2 10.9511 -1.62369 4.54521
3 10.8145 1.58983 -4.3136
3 1.34808 11.7519 0.026486
2 4.0254 10.1598 4.47513
2 6.62894 8.47508 -4.51485
3 -9.35539 6.94335 -0.0925361
1 -4.0604 10.1211 4.361
1 -6.66563 8.60789 -4.34264
3 -10.6581 -4.65066 -0.0383973
2 -10.7231 -1.61041 4.47964
2 -10.5731 1.52683 -4.35334
2 -1.46523 -11.6485 0.173893
2 -6.83372 -8.58267 4.49223
2 -4.04778 -10.081 -4.26584
2 9.30009 -7.11861 -0.0625665
3 6.74559 -8.57224 4.41568
3 4.15525 -10.0976 -4.37011
2 4.03365 0.74926 11.0575
2 1.44909 -3.82581 11.0389
2 -2.60023 3.14329 11.2324
2 2.55336 -3.09986 -11.1241
2 -2.76027 -3.13622 -10.9403
2 1.39365 3.83118 -10.8783
3 9.38804 6.93853 -0.016818
2 9.54177 -2.53767 6.62392
2 9.45007 2.2132 -6.49219
1 -1.25093 11.8019 -0.0298118
3 2.71483 9.3226 6.66094
2 6.7874 6.81028 -6.70133
1 -10.7868 4.69633 -0.0156245
2 -2.73606 9.32068 6.6126
1 -6.66705 7.038 -6.63538
2 -9.45525 -6.93897 -0.0340592
3 -9.30032 -2.39893 6.56385
2 -9.36656 2.15409 -6.54669
3 1.39988 -11.6012 0.0977924
3 -6.7412 -7.20386 6.50861
2 -2.70052 -9.36575 -6.49413
2 10.7789 -4.84495 -0.140876
2 6.81195 -6.96518 6.6042
1 2.65081 -9.24136 -6.56448
3 2.53195 3.14169 11.0622
3 -1.39369 -3.75411 11.0327
1 -4.11709 0.729949 11.1013
3 4.04476 -0.696106 -11.0005
2 -4.08054 -0.754487 -11.0792
2 -1.21375 3.9524 -11.0009
2 8.04749 9.45354 0.041185
2 8.19766 -3.08991 8.76109
3 8.11337 3.09505 -8.82088
3 -3.99408 11.6882 -0.0410577
2 1.3004 8.6575 8.84154
3 6.69145 5.40746 -8.8678
2 -12.1627 2.30411 0.0702837
1 -1.38051 8.57451 8.87941
1 -6.76151 5.54223 -8.9532
2 -8.198 -9.33617 0.0276485
1 -8.06449 -3.2139 8.91052
3 -8.18605 3.1562 -8.87953
2 3.96011 -11.5818 0.0689598
3 -6.64865 -5.59648 8.74514
2 -1.28224 -8.56958 -8.77951
3 12.2332 -2.29217 0.125549
1 6.79009 -5.47668 8.74975
2 1.31302 -8.41676 -8.85697
2 1.2473 5.47967 10.9984
1 -3.89714 -3.80817 10.9188
3 -5.24745 -1.64106 11.0663
3 5.4422 1.58121 -11.0309
3 -5.35913 1.5275 -11.0679
2 -3.98545 3.78829 -10.9823
3 10.8427 2.94165 -2.11431
3 2.63447 10.9133 2.29588
2 -8.14367 7.78759 -2.29053
2 -10.7512 -3.22797 2.18215
1 -2.72006 -10.8792 -2.16828
2 8.10723 -7.94871 2.32247
2 2.83113 -1.49671 10.906
1 0.0573174 -3.14931 -10.9193
2 9.4629 3.96858 -4.29816
2 1.33397 10.0841 4.48136
2 -7.97537 6.08021 -4.51688
3 -9.37124 -3.86352 4.46631
2 -1.36673 -10.0551 -4.37603
3 8.11829 -6.36666 4.36482
2 0.0891624 -1.53649 11.082
2 -1.26264 -0.766916 -11.028
2 8.08534 4.62522 -6.63754
3 0.134575 9.31826 6.60877
1 -7.97241 4.72277 -6.68886
2 -7.9865 -4.60162 6.72896
1 -0.0377943 -9.2673 -6.63439
3 8.14756 -4.73663 6.47145
2 -2.59943 -1.45338 11.2098
1 -2.6695 1.43599 -10.9842
1 10.7483 1.40255 2.14352
2 4.04806 10.1046 -2.19646
2 -6.54992 8.50862 2.26991
3 -10.7194 -1.69954 -2.31037
2 -4.03987 -10.1899 2.24242
1 6.66858 -8.55592 -2.24301
1 9.44828 0.826149 4.4646
2 3.84888 8.4918 -4.3193
1 -5.45068 7.65206 4.42674
2 -9.3904 -1.01991 -4.3467
2 -4.06158 -8.59595 4.52129
2 5.5435 -7.88532 -4.42767
1 8.10922 0.0684482 6.72861
1 4.1293 7.04919 -6.57613
3 -3.93964 6.91765 6.59295
1 -8.12933 -0.150561 -6.45875
2 -4.08812 -7.08116 6.63446
2 4.02079 -6.94476 -6.62489
3 6.77959 -0.799477 8.90101
2 4.17043 5.48745 -8.96606
1 -2.63205 6.1556 8.81309
1 -6.82055 0.774841 -8.75934
3 -3.93555 -5.28506 8.59232
2 2.84735 -6.11504 -9.04443
3 9.47176 5.46284 -2.21842
1 0.0796891 10.9059 2.32232
2 -9.36384 5.48141 -2.23999
3 -9.34149 -5.574 2.2434
2 0.110119 -10.847 -2.1159
1 9.5103 -5.50229 2.12783
3 1.45501 0.771664 11.0949
1 1.26941 -0.72174 -10.9715
2 7.98045 6.0406 -4.41119
3 -1.3461 10.226 4.28294
1 -9.2129 3.92345 -4.45878
2 -8.16438 -6.21671 4.53218
2 1.56204 -10.0446 -4.30417
3 9.59061 -3.99898 4.46712
3 -1.30921 0.80199 11.0845
3 -0.000574484 1.57692 -11.0101
1 9.33192 3.90936 2.21903
3 1.32898 10.1885 -2.18251
2 -8.0708 6.24639 2.19587
3 -9.52994 -4.03663 -2.25085
2 -1.17987 -10.0982 2.23098
1 8.09291 -6.26243 -2.46537
1 7.9827 3.14869 4.59315
3 1.39008 8.61638 -4.16397
2 -6.75498 5.36392 4.34479
3 -8.01854 -3.19883 -4.4563
2 -1.41304 -8.53904 4.48941
3 6.61091 -5.61606 -4.52815
2 6.75312 2.32699 6.69431
1 1.25574 7.14325 -6.56743
1 -5.22507 4.65579 6.50388
2 -6.68696 -2.32964 -6.46975
1 -1.4077 -6.9316 6.7632
2 5.42823 -4.69993 -6.6899
2 5.46903 1.48189 9.05954
3 1.44173 5.43092 -8.72352
3 -4.04202 3.85772 8.99041
1 -5.29436 -1.67454 -8.82073
3 -1.2497 -5.47044 9.0349
2 4.14658 -3.87148 -8.89457
2 8.10725 7.71309 -2.22425
2 -2.70109 10.9235 2.2743
2 -10.6547 3.07905 -2.23511
1 -8.20155 -7.71707 2.45346
3 2.79601 -10.8667 -2.19745
1 10.779 -3.07275 2.24172
3 0.0410748 3.19147 11.1191
1 2.77037 1.62765 -10.9437
1 7.90181 6.27458 2.08948
2 -1.27639 10.1914 -2.28157
2 -9.42355 3.93323 2.20749
2 -8.00098 -6.33446 -2.158
3 1.46832 -10.0958 2.30603
1 9.45235 -4.01461 -2.48064
2 6.74684 5.41227 4.44742
1 -1.38317 8.66578 -4.31193
2 -8.00898 3.07143 4.43899
3 -6.72863 -5.51235 -4.4541
1 1.49983 -8.51532 4.37968
2 7.90221 -3.26627 -4.49741
2 5.4371 4.65603 6.6937
2 -1.27598 6.96738 -6.51344
2 -6.71269 2.26942 6.45666
3 -5.48274 -4.69343 -6.54221
2 1.26974 -7.07181 6.79221
1 6.61678 -2.4304 -6.80955
1 4.01639 3.89728 8.89277
1 -1.18454 5.37988 -8.80312
1 -5.32276 1.56156 8.78167
2 -4.17125 -3.97599 -8.65505
2 1.37857 -5.40859 8.8968
2 5.47249 -1.34342 -8.937
2 6.75254 8.65217 2.18463
2 -4.06356 10.0648 -2.22476
3 -10.8103 1.52591 2.22914
3 -6.75789 -8.64746 -2.12879
2 4.14461 -10.1849 2.40598
3 10.8778 -1.70819 -2.26444
2 5.47916 7.82055 4.41771
2 -3.94705 8.52023 -4.44294
2 -9.4809 0.684895 4.43653
3 -5.3854 -7.81827 -4.39217
3 4.21686 -8.56961 4.40638
3 9.38858 -0.725092 -4.44961
3 4.01385 7.02824 6.72592
2 -3.90524 6.8209 -6.64027
3 -8.03614 -0.0752063 6.7482
3 -4.01271 -7.13202 -6.59544
2 4.07861 -7.05265 6.62921
3 8.07704 -0.0425078 -6.68252
2 2.6569 6.24226 8.91701
3 -3.99903 5.41866 -8.92044
1 -6.60875 -0.889496 8.87843
3 -2.87789 -6.30994 -8.84999
2 4.09196 -5.43193 8.69765
2 6.62775 0.833043 -8.83928
2 15.9523 0.0169332 -0.0244411
1 8.21752 14.1325 0.034078
1 -8.13378 14.0636 0.0369239
1 -16.4758 0.0125135 -0.00250765
1 -8.2145 -13.9681 0.0423881
1 8.13074 -14.0781 -0.0427766
1 8.05985 -4.69366 13.1917
3 0.0440917 9.33321 13.3379
1 -8.0501 -4.66519 13.1914
1 -0.0301693 -9.26145 -13.2786
1 8.11235 4.62343 -13.2168
2 -8.03202 4.61245 -13.1192
3 14.8092 2.26426 0.145157
2 14.8754 -0.805908 2.41909
2 14.9485 0.780385 -2.30545
2 5.35229 13.9049 0.0817
3 6.71209 13.2448 2.22792
3 8.07763 12.586 -2.2091
1 -9.52248 11.706 -0.0776646
2 -6.71533 13.2297 2.10821
2 -8.04935 12.5193 -2.15239
2 -14.7571 -2.33613 -0.009619
3 -14.8693 -0.846616 2.12023
2 -14.8392 0.798302 -2.28383
1 -5.42941 -14.0206 -0.113489
2 -8.21459 -12.3066 2.11792
1 -6.86993 -13.2488 -2.19966
1 9.45086 -11.7375 0.0117115
2 8.21171 -12.5689 2.09382
2 6.8097 -13.3706 -2.28532
2 6.72312 -2.44417 13.2414
2 5.4039 -4.67078 13.3448
1 -1.42823 6.97239 13.2214
1 1.20458 -6.92078 -13.2188
1 -1.36312 -6.96609 -13.122
1 5.4611 4.79902 -13.3154
3 13.5775 4.61381 0.0737032
3 13.4479 -1.64809 4.66281
1 13.5897 1.41518 -4.4432
1 2.38708 13.9963 -0.029782
1 5.37652 12.4066 4.44008
1 8.01296 10.7933 -4.33969
2 -10.7552 9.20899 0.0331975
1 -5.3716 12.3609 4.49239
2 -8.22603 10.9787 -4.46144
2 -13.2854 -4.70775 0.0455868
2 -13.4949 -1.47362 4.22896
2 -13.5363 1.48873 -4.38031
3 -2.64425 -13.9434 0.0931507
2 -8.2549 -10.9455 4.35067
1 -5.34832 -12.4859 -4.42298
3 10.7112 -9.32411 -0.0325893
2 7.98886 -11.1354 4.32143
2 5.50553 -12.4536 -4.50395
3 5.38291 -0.0215338 13.3183
1 2.68235 -4.71772 13.2717
3 -2.75653 4.67742 13.2272
1 2.69905 -4.6844 -13.2849
3 -2.85007 -4.60495 -13.0913
2 2.7633 4.63904 -13.1684
1 12.1955 7.05568 0.103949
1 12.2503 -2.37555 6.70289
2 12.0974 2.35438 -6.52846
3 -0.0468291 14.1443 0.0161401
3 3.80604 11.7061 6.6509
2 7.97128 9.33315 -6.57461
2 -12.1325 7.04117 -0.0744419
2 -3.90251 11.6103 6.70602
1 -8.10591 9.1516 -6.61362
3 -12.1712 -6.97893 0.15366
1 -12.0145 -2.28843 6.559
2 -12.1101 2.31867 -6.447
2 -0.0635108 -14.0173 0.0495951
3 -8.1839 -9.35952 6.50471
2 -3.90202 -11.7 -6.5157
2 12.1218 -7.03498 0.0840295
2 8.05085 -9.33552 6.69106
3 4.00577 -11.5871 -6.52423
1 4.05831 2.36139 13.268
3 -0.034193 -4.60301 13.1702
1 -4.10659 2.41777 13.1866
1 4.11948 -2.45839 -13.2369
2 -4.02058 -2.41208 -13.3037
2 0.15583 4.79724 -13.1986
1 10.837 9.48626 0.0160448
3 10.7483 -3.19878 8.92227
2 10.7418 3.13495 -8.6805
2 -2.72081 14.0587 0.15868
3 2.49955 10.8171 8.88375
2 8.11671 7.65242 -8.88285
1 -13.4293 4.54103 0.0565778
3 -2.66233 10.851 8.88325
2 -8.09653 7.75954 -8.80323
2 -10.9034 -9.15369 -0.151678
3 -10.7751 -3.11813 8.84699
3 -10.6859 3.00865 -8.7277
1 2.83854 -14.0703 0.158134
1 -8.0884 -7.79262 8.80642
2 -2.69179 -10.9519 -8.93264
2 13.4473 -4.62536 0.183818
1 8.10725 -7.83471 8.75556
3 2.71067 -10.7274 -8.90596
2 2.77628 4.6882 13.2728
1 -2.6677 -4.60984 13.2248
2 -5.28291 -0.00609161 13.1768
2 5.59154 -0.0696712 -13.3332
3 -5.33288 -0.17332 -13.3668
2 -2.51118 4.67725 -13.187
2 9.65056 11.8302 0.0618436
2 9.62513 -4.03882 11.0124
2 9.34728 3.8367 -10.923
2 -5.38928 14.0026 0.0412507
3 1.34416 10.2253 11.0456
3 8.04486 6.15754 -11.0175
2 -14.9365 2.31079 -0.000948321
2 -1.31087 10.2308 11.0891
1 -8.15698 6.13791 -11.058
1 -9.51831 -11.6363 -0.0663913
2 -9.39518 -3.91556 10.975
3 -9.25753 3.67076 -11.0206
2 5.42975 -14.1545 0.152314
3 -8.05158 -6.11917 11.0028
3 -1.41156 -10.0128 -10.9673
2 14.7911 -2.31737 0.223346
3 8.23996 -6.30743 10.8332
2 1.18503 -10.0897 -11.0679
2 1.33777 7.05459 13.3688
2 -5.38182 -4.71913 13.1021
2 -6.86753 -2.42053 13.2832
2 6.83347 2.292 -13.3414
1 -6.62931 2.24847 -13.2254
1 -5.21378 4.64485 -13.2364
2 13.5185 3.1724 -1.95772
1 3.86454 13.2936 2.15625
2 -9.55201 10.0657 -2.09563
2 -13.3914 -3.04695 2.14506
2 -3.92781 -13.3697 -2.22948
2 9.57693 -10.2821 2.09448
1 3.9848 -2.24758 13.3165
3 -0.032901 -4.58629 -13.2525
2 12.0851 3.83958 -4.15605
1 2.61278 12.3673 4.37271
2 -9.5195 8.60771 -4.4539
2 -12.1771 -3.8211 4.62709
3 -2.65612 -12.2539 -4.24033
2 9.53355 -8.72016 4.38528
2 1.42665 -2.26376 13.2507
2 -1.29893 -2.44479 -13.1211
2 10.7604 4.81011 -6.57501
3 1.28827 11.7305 6.62043
1 -9.48511 6.91822 -6.63411
2 -10.6612 -4.78047 6.75158
2 -1.24142 -11.5546 -6.59393
2 9.42667 -6.97458 6.54104
1 -1.18359 -2.1653 13.3793
2 -2.5541 -0.0480103 -13.2512
3 9.35854 5.28234 -8.88948
2 -0.0805133 11.0307 8.7222
2 -9.61383 5.34988 -8.90306
3 -9.51778 -5.39498 8.9107
1 -0.108374 -10.9832 -8.8814
1 9.59827 -5.52489 8.72144
2 -4.13939 -2.26719 13.3492
3 -3.97874 2.20862 -13.1423
2 13.4282 1.53699 2.27679
1 5.3131 12.4909 -2.09991
1 -7.96375 10.7543 2.23044
2 -13.3063 -1.55251 -2.19608
3 -5.43347 -12.3704 2.28261
1 8.20055 -10.8896 -2.18956
1 12.174 0.794618 4.38558
1 5.25703 10.8588 -4.30763
3 -6.79105 10.0058 4.53144
2 -12.0484 -0.620483 -4.39358
2 -5.47523 -10.9091 4.56025
2 6.79106 -10.1752 -4.67717
3 10.7554 -0.0491776 6.73712
1 5.28929 9.45838 -6.56211
1 -5.38351 9.31618 6.61772
3 -10.6983 -0.0181457 -6.497
3 -5.38052 -9.3074 6.60347
3 5.44639 -9.19581 -6.68463
1 9.52543 -0.770253 8.91662
2 5.35634 7.78866 -8.78573
2 -4.09521 8.51361 8.80082
2 -9.44046 0.755631 -8.75166
2 -5.31859 -7.7418 8.86048
1 4.05871 -8.49237 -8.94333
2 8.17696 -1.58558 11.057
3 5.53333 6.4063 -11.0409
2 -2.73818 7.8624 11.2124
3 -8.04152 1.5905 -11.0391
3 -5.37529 -6.22363 11.0568
2 2.53855 -7.84151 -11.1594
2 12.2037 5.39228 -1.93017
2 1.31437 13.2501 2.17321
3 -10.6693 7.83367 -2.31373
1 -12.2226 -5.39043 2.3259
2 -1.2198 -13.2897 -2.07486
3 10.7447 -7.77528 2.07944
2 2.6943 0.0558866 13.1777
1 1.32246 -2.32195 -13.2469
2 10.8898 6.23443 -4.32498
2 0.0912234 12.5131 4.33852
2 -10.7595 6.15145 -4.50688
1 -10.7476 -6.20948 4.67464
2 0.0376055 -12.4044 -4.39216
2 10.8321 -6.22022 4.43908
3 0.13337 0.0811955 13.253
1 -0.000908874 -0.00683415 -13.4392
3 9.34655 7.09769 -6.70292
3 -1.31042 11.619 6.55553
2 -10.8157 4.53607 -6.66802
2 -9.43931 -7.03387 6.68231
2 1.50807 -11.7012 -6.67605
3 10.9308 -4.78568 6.60799
3 -2.7231 -0.00533815 13.3328
1 -1.39189 2.17762 -13.3625
2 12.1379 3.95368 2.3669
2 2.56792 12.4428 -2.18406
3 -9.27432 8.56306 2.16119
3 -12.1724 -3.92408 -2.31045
2 -2.8208 -12.4521 2.24793
1 9.53262 -8.57001 -2.15316
1 10.9255 3.12091 4.38916
3 2.57992 10.9352 -4.32539
2 -8.15732 7.844 4.32354
2 -10.7623 -3.19188 -4.35799
2 -2.64609 -10.8594 4.47872
3 8.10093 -7.88765 -4.45834
3 9.49979 2.42215 6.77155
2 2.67436 9.41977 -6.62215
2 -6.81144 7.03781 6.59258
2 -9.46167 -2.46531 -6.47083
3 -2.56164 -9.3538 6.72298
1 6.81591 -7.01006 -6.71448
1 8.18132 1.61469 8.9882
1 2.71985 7.90741 -8.69726
1 -5.38171 6.17351 8.8867
3 -8.00118 -1.62401 -8.79495
3 -2.74523 -7.80503 8.98388
2 5.4961 -6.22516 -8.90012
2 6.88636 0.733611 11.0706
2 2.94578 6.30986 -11.0277
2 -4.04704 5.5039 10.949
2 -6.81234 -0.763872 -10.8723
2 -2.73428 -6.08425 11.0701
2 4.10356 -5.39805 -11.2785
2 10.7831 7.95536 -2.03332
1 -1.51068 13.2671 2.18333
1 -12.0132 5.51173 -2.30157
2 -10.861 -7.80034 2.15652
2 1.39232 -13.2661 -2.22361
3 12.1767 -5.52389 2.17909
2 1.31677 2.39882 13.1973
2 2.76117 -0.183959 -13.3555
1 9.38049 8.43157 -4.44296
2 -2.66011 12.3861 4.3403
2 -12.116 3.87307 -4.36325
2 -9.59808 -8.65537 4.45797
2 2.75345 -12.4229 -4.34509
2 12.2212 -3.97074 4.46732
1 -1.42635 2.38052 13.3841
2 1.40037 2.42171 -13.2829
2 10.5796 6.19842 2.22461
3 0.0428581 12.4016 -2.10715
1 -10.7688 6.23165 2.1976
1 -10.8724 -6.24214 -2.18139
2 -0.00362979 -12.4482 2.26694
3 10.8135 -6.31975 -2.24887
2 9.48843 5.453 4.55521
3 0.126208 10.9868 -4.4275
3 -9.27009 5.53323 4.43682
2 -9.3628 -5.60351 -4.32484
2 0.0593848 -10.806 4.54453
3 9.38801 -5.46108 -4.62139
2 8.19268 4.65643 6.75144
3 -0.148173 9.37354 -6.53311
2 -8.05429 4.65501 6.58524
2 -8.04502 -4.7766 -6.5078
2 0.0993678 -9.33853 6.74364
3 8.06939 -4.64503 -6.71804
1 6.73952 3.81884 8.90379
2 -0.0616128 7.8259 -8.70398
2 -6.644 3.90007 8.72906
2 -6.82941 -3.86554 -8.76105
2 -0.129936 -7.80759 8.99183
2 6.76978 -3.84612 -9.04446
3 5.48765 3.19286 11.1245
2 0.138557 6.31763 -10.9386
1 -5.46333 3.2611 10.9916
2 -5.49691 -2.98011 -10.9993
1 0.0641977 -6.02692 11.1466
2 5.54021 -2.99435 -11.1097
2 9.30292 10.2907 -2.09929
3 -4.17161 13.2069 2.23487
2 -13.5097 3.0901 -2.23702
3 -9.62835 -10.08 2.18569
2 4.14143 -13.1889 -2.15931
2 13.387 -3.05718 2.4436
2 0.0115356 4.7638 13.2406
1 4.02266 2.29916 -13.256
3 9.44559 8.60276 2.17606
2 -2.65984 12.5143 -2.34631
3 -12.0507 3.84276 2.21223
3 -9.34961 -8.65173 -2.28066
2 2.71127 -12.5245 2.33986
1 12.0976 -4.0068 -2.10449
1 8.17495 7.68759 4.42178
3 -2.78542 10.8784 -4.32894
1 -10.7419 3.03227 4.42895
1 -8.02477 -7.75456 -4.3691
2 2.83132 -10.8422 4.34941
2 10.7521 -3.2489 -4.47749
1 6.81041 7.0546 6.66777
2 -2.77017 9.41574 -6.56964
2 -9.39183 2.21224 6.61786
2 -6.54298 -7.05549 -6.50353
1 2.778 -9.37144 6.61302
1 9.46993 -2.30133 -6.60937
3 5.53412 6.24362 8.87732
2 -2.68529 7.64434 -8.99967
2 -7.93691 1.48808 8.76164
2 -5.44169 -6.27458 -8.73614
2 2.69506 -7.99714 8.95571
1 8.12936 -1.5373 -8.91302
1 3.95276 5.58007 10.9691
2 -2.62357 6.04371 -11.0121
2 -6.76739 0.685022 11.0978
2 -4.09705 -5.44643 -11.0544
2 2.67731 -6.33594 11.1232
3 6.78878 -0.834499 -11.2733
3 8.06538 10.9802 2.1766
3 -5.30609 12.4937 -2.30532
2 -13.3762 1.53971 2.26154
2 -8.16325 -10.8745 -2.25604
3 5.36026 -12.3772 2.1202
2 13.5834 -1.63122 -2.13511
2 6.86321 10.0511 4.34661
2 -5.39502 11.0503 -4.39463
3 -12.2039 0.697437 4.42704
3 -6.64856 -10.0952 -4.34872
1 5.45913 -10.8867 4.32766
2 12.0398 -0.902655 -4.4388
1 5.38007 9.46493 6.67674
1 -5.31241 9.40699 -6.59304
3 -10.8307 0.0706343 6.60641
2 -5.40404 -9.45245 -6.51203
1 5.48414 -9.46029 6.68803
2 10.7482 0.0195774 -6.47047
2 4.10685 8.58209 8.71521
2 -5.36117 7.80008 -8.79905
3 -9.45213 -0.769352 8.89749
2 -3.98886 -8.69121 -8.78836
3 5.41366 -7.79392 8.89609
1 9.39561 0.856393 -8.75529
2 2.71816 7.89243 11.0702
2 -5.51302 6.20834 -10.9745
2 -8.15129 -1.49556 11.0471
3 -2.75126 -7.82248 -10.9762
2 5.59912 -6.15869 10.8806
2 8.05113 1.47589 -11.0889
2 18.8876 0.0473931 0.224489
3 9.1907 16.5026 0.0102793
3 -9.61531 16.3156 0.113981
2 -19.0398 0.212875 0.109809
3 -9.43642 -16.3254 0.0314529
1 9.60897 -16.429 -0.190729
1 9.44901 -5.60999 15.4072
1 0.012623 10.9691 15.4336
3 -9.54857 -5.3753 15.2848
2 -0.13589 -10.7493 -15.4719
1 9.45604 5.43001 -15.372
1 -9.23522 5.40457 -15.3608
1 17.4778 2.37614 0.184118
2 17.4832 -0.81855 2.2903
3 17.7159 0.687201 -2.03247
2 6.60863 16.4091 0.111322
2 8.03926 15.5519 2.1734
2 9.41268 14.8935 -2.2111
1 -10.8354 14.0536 -0.00621725
1 -7.99199 15.6704 2.19507
2 -9.51787 14.8161 -2.21164
2 -17.5431 -2.29993 -0.00550971
3 -17.6069 -0.58664 2.26637
3 -17.572 0.862975 -2.19534
3 -6.75728 -16.3703 0.106679
3 -9.42313 -14.6865 2.26429
2 -8.18189 -15.524 -2.20326
3 10.856 -13.9798 -0.15255
1 9.53552 -14.9582 2.06218
1 7.98509 -15.7282 -2.29903
1 8.10517 -3.01481 15.4472
2 6.74339 -5.50746 15.6019
1 -1.42199 8.70902 15.5157
2 1.31484 -8.48111 -15.5529
3 -1.45294 -8.34906 -15.4421
1 6.76676 5.47539 -15.5546
3 16.1412 4.66399 0.118439
2 16.3184 -1.5834 4.5772
3 16.1288 1.48749 -4.38654
1 3.97326 16.2267 -0.0421869
2 6.68886 14.8451 4.35396
1 9.35663 13.1755 -4.40059
2 -12.2531 11.7117 0.0281353
1 -6.63041 14.6707 4.26246
2 -9.42527 13.2565 -4.47482
2 -16.18 -4.60285 0.0847772
1 -16.1402 -1.44111 4.37291
1 -16.1965 1.75716 -4.30661
1 -4.05861 -16.2196 0.0700545
2 -9.42715 -13.3137 4.44449
3 -6.88143 -14.7658 -4.33235
2 12.2936 -11.7317 -0.00853547
2 9.48716 -13.4226 4.21066
3 6.73358 -14.7881 -4.43902
3 6.5658 -0.907072 15.3741
1 4.15472 -5.50477 15.5274
3 -2.84623 6.25312 15.3241
1 2.7517 -6.24085 -15.5264
2 -2.77208 -6.07545 -15.2708
1 4.08303 5.32572 -15.5989
2 14.8419 6.90591 0.102211
1 15.017 -2.25551 6.63824
1 14.8955 2.21519 -6.61535
2 1.28534 16.3371 0.0369861
1 5.36547 14.0337 6.55972
2 9.38643 11.7026 -6.55844
3 -13.5123 9.44492 -0.0948585
2 -5.52265 13.9837 6.6925
2 -9.64145 11.6234 -6.61117
2 -14.7443 -6.99507 0.0547295
2 -15.0243 -2.182 6.63569
1 -14.8376 2.35958 -6.63491
3 -1.28228 -16.3342 0.0132395
2 -9.53968 -11.6945 6.58271
3 -5.41605 -14.0145 -6.55492
2 13.3342 -9.24805 -0.0526867
2 9.48559 -11.4083 6.49104
1 5.45565 -13.974 -6.6033
2 5.34779 1.53214 15.3519
1 1.38002 -5.56801 15.3228
2 -4.04833 3.97033 15.4136
3 4.10232 -3.89559 -15.5744
3 -4.06733 -3.73854 -15.4623
1 1.42119 5.52262 -15.4067
3 13.5526 9.36397 0.0785671
1 13.5452 -3.18655 8.90481
3 13.4472 3.07517 -8.72946
3 -1.23007 16.3935 -0.14488
1 3.90334 13.2199 8.92229
2 9.3569 9.99218 -8.95955
2 -14.8965 6.95228 -0.0153761
3 -4.13853 13.2165 8.77839
3 -9.48107 10.0791 -8.85205
2 -13.4903 -9.25926 0.0802982
2 -13.5041 -3.15169 8.8637
2 -13.2933 3.05561 -8.7473
3 1.57696 -16.3868 0.0593492
2 -9.30385 -10.1188 8.75027
3 -3.92464 -13.1719 -8.75593
1 14.8668 -6.95382 0.141327
3 9.46859 -10.253 8.88751
3 4.09848 -13.2108 -8.8836
2 4.00515 3.98487 15.4227
3 -1.36442 -5.54774 15.4297
1 -5.44523 1.5312 15.4993
3 5.37342 -1.53393 -15.5312
3 -5.34986 -1.60394 -15.5307
1 -1.2935 5.42509 -15.7018
3 12.2506 11.7998 0.0175591
1 12.1946 -4.19646 10.957
1 12.0675 3.80468 -10.9668
1 -4.02349 16.4792 0.0151092
3 2.69014 12.3627 11.0528
3 9.28372 8.52321 -11.1043
1 -16.2346 4.75941 0.0659949
2 -2.60177 12.5038 10.9995
3 -9.45159 8.57985 -10.9637
2 -12.1983 -11.6092 -0.00128145
2 -12.1354 -3.80679 11.2223
2 -12.0076 3.90683 -10.7342
2 4.18438 -16.5175 0.0321242
2 -9.38685 -8.44231 11.1348
1 -2.65624 -12.4844 -11.002
2 16.1833 -4.57252 0.0996141
1 9.50123 -8.76312 11.0235
2 2.61369 -12.39 -10.9541
3 2.6188 6.13402 15.4643
1 -4.20504 -5.30306 15.3572
1 -6.82104 -0.872882 15.4666
3 6.7641 0.745118 -15.3746
1 -6.7529 0.713948 -15.3881
2 -4.04063 5.48049 -15.5371
3 10.8729 14.0874 0.0785001
1 10.9129 -4.82489 13.2627
2 10.6972 4.43189 -13.137
2 -6.74025 16.4478 0.0529493
3 1.44497 11.717 13.0817
2 9.57917 6.99263 -13.1689
1 -17.5169 2.45601 0.0382325
3 -1.29596 11.825 13.2203
3 -9.46144 7.034 -13.1583
2 -10.7878 -14.0291 0.12749
2 -11.0114 -4.56629 13.3232
2 -10.715 4.60871 -13.1792
2 6.9781 -16.398 -0.0928698
2 -9.30822 -6.80995 13.1854
2 -1.35937 -11.5952 -13.084
3 17.4542 -2.46852 0.110876
2 9.50883 -7.0683 13.2027
3 1.33467 -11.6956 -13.3102
3 1.25797 8.50515 15.4233
1 -6.80139 -5.60118 15.522
2 -8.37466 -3.14151 15.5568
3 8.02843 3.16493 -15.4279
1 -8.07136 2.98722 -15.5615
2 -6.7952 5.548 -15.7156
1 16.118 3.09269 -2.13247
1 5.25143 15.5922 2.1523
2 -10.8947 12.2806 -2.23889
2 -16.2471 -3.00069 2.28615