7803
 Atoms. Timestep: 6000
3 -0.0473464 -0.0232796 -0.0636067
1 2.62159 0.0126915 0.159928
3 1.37824 2.46868 0.0910105
3 -1.35869 2.35048 -0.0503243
3 -2.48061 0.115591 0.0492002
2 -1.40313 -2.54721 0.178284
3 1.30043 -2.36683 -0.0407249
3 1.32971 -0.6824 2.52754
1 0.0974853 1.49672 2.10994
2 -1.26015 -0.789481 2.09877
1 -0.040317 -1.71251 -2.20999
2 1.3881 0.895328 -1.924
3 -1.26273 0.755806 -2.24502
1 5.52953 0.122353 0.224191
2 2.81136 4.76032 -0.0163434
3 -2.61782 4.69768 0.0466903
3 -5.19753 -0.0226924 -0.000639311
1 -2.63879 -4.7056 -0.185923
1 2.6308 -4.69527 0.0408361
3 2.79932 -1.29976 4.29925
1 0.0307097 3.26157 4.48115
1 -2.47962 -1.61674 4.50115
3 0.246495 -3.21343 -4.44096
1 2.8557 1.51222 -4.24121
2 -2.46131 1.51593 -4.50876
3 4.12039 2.33114 0.0699052
3 4.03163 -0.748597 2.24496
2 3.94821 0.667964 -1.9386
1 0.0964951 4.76206 0.00849685
1 1.38904 3.99021 2.33169
1 2.82629 3.16573 -2.13381
2 -3.96977 2.16009 -0.262711
1 -1.29402 3.89437 2.14586
2 -2.51571 3.07632 -2.25428
3 -4.03482 -2.29306 0.0755672
2 -3.94579 -0.8599 2.13743
3 -3.86757 0.723253 -2.39447
2 -0.0335182 -4.77677 0.155198
1 -2.50289 -3.05478 2.34248
3 -1.30371 -3.92497 -2.06265
1 4.07519 -2.25118 -0.00898077
3 2.75388 -3.18419 2.22473
3 1.43196 -3.86992 -2.0914
2 1.35453 0.870321 4.42516
2 0.0907182 -1.47586 4.54216
2 -1.42772 0.734236 4.56835
1 1.3888 -0.912774 -4.25135
1 -1.25097 -0.969593 -4.48555
1 0.205968 1.60439 -4.47201
2 2.62783 1.5327 2.19384
3 0.129382 3.08566 -2.20029
2 -2.53467 1.52488 2.19812
1 -2.60908 -1.62546 -2.11139
1 0.158367 -3.07103 2.1348
2 2.53222 -1.47706 -1.9876
3 8.0479 0.1173 -0.056376
2 4.08844 7.18037 0.06711
2 -3.89499 6.95179 -0.141923
1 -7.92179 -0.193445 0.149816
2 -4.04111 -7.05297 -0.135298
2 3.93624 -7.09226 0.0332122
2 4.1104 -2.18987 6.58162
1 -0.0535755 4.85322 6.60602
3 -4.15061 -2.2541 6.68931
3 0.190786 -4.87868 -6.4952
1 4.24825 2.38523 -6.40044
2 -4.06078 2.53273 -6.59464
2 6.84459 2.3971 0.0602931
3 6.86358 -0.787752 2.21158
1 6.85607 0.665756 -2.24627
2 1.42982 7.03735 -0.0160457
3 2.86556 6.15145 2.17587
1 4.08647 5.59225 -2.16971
2 -5.28155 4.48368 -0.0557017
1 -2.55062 6.21713 2.25016
1 -4.02014 5.48075 -2.20256
1 -6.64088 -2.35028 -0.0692822
2 -6.74258 -0.814128 2.23659
3 -6.82227 0.582593 -2.19904
2 -1.51354 -7.20769 0.165885
2 -4.09149 -5.56282 2.25883
3 -2.73762 -6.39497 -2.34465
1 5.40518 -4.70694 0.0272295
2 3.98968 -5.40109 2.08067
2 2.67632 -6.18247 -2.14875
1 2.67392 0.0481487 6.75668
2 1.33138 -2.22794 6.67857
1 -1.26848 2.19302 6.62297
2 1.44911 -2.37127 -6.55164
2 -1.15038 -2.56878 -6.35047
2 1.64967 2.16619 -6.5729
2 5.38934 4.60003 0.080226
2 5.44434 -1.27217 4.36838
2 5.63861 1.5692 -4.24778
1 -1.31444 7.09538 -0.0650007
3 1.43554 5.68215 4.38879
3 4.27027 4.01953 -4.33572
3 -6.53504 2.23491 0.0752934
3 -1.36875 5.42128 4.38421
1 -3.92666 3.79 -4.53144
2 -5.24619 -4.5782 -0.00433546
2 -5.24515 -1.67188 4.37761
2 -5.42781 1.40561 -4.37177
3 1.29252 -7.08918 0.0108063
2 -3.99247 -3.89989 4.59303
3 -1.33669 -5.62349 -4.31328
1 6.84456 -2.24363 -0.0590687
1 4.22792 -3.68378 4.33007
2 1.32086 -5.53122 -4.30431
1 1.31965 2.44706 6.59436
3 -1.39833 -2.26328 6.71732
2 -2.67777 -0.0735964 6.72195
1 2.88171 -0.203444 -6.4379
2 -2.61208 -0.0495864 -6.58325
2 -1.21248 2.32759 -6.68619
2 5.57398 3.15242 -2.28026
2 0.0954574 6.23747 2.32752
3 -5.31136 3.00467 -2.38415
1 -5.31184 -3.26207 2.14999
2 -0.118192 -6.09893 -2.1822
2 5.46489 -2.93953 1.99335
3 0.00507975 -0.0164451 6.78699
2 0.0938111 -0.0899939 -6.50667
3 5.34264 1.48558 2.27163
1 1.52631 5.42596 -2.3343
2 -3.84952 3.85563 2.30085
3 -5.44306 -1.68564 -2.19077
2 -1.39299 -5.34531 2.26583
1 3.95857 -3.89861 -2.16038
2 4.16185 0.905988 4.39249
3 1.47899 3.99148 -4.40814
3 -2.51163 3.06757 4.49296
2 -4.08551 -1.07017 -4.286
1 -1.15247 -3.7161 4.54478
2 2.75326 -3.24928 -4.32046
1 4.02928 3.92708 2.38021
1 -1.31934 5.40915 -2.15678
1 -5.29879 1.41026 2.34889
2 -4.04818 -3.83298 -2.17395
3 1.29127 -5.453 2.25094
2 5.62081 -1.69993 -2.10673
2 2.78666 3.2797 4.51565
3 -1.28532 3.8136 -4.35198
1 -3.95635 0.729478 4.47735
2 -2.53225 -3.2947 -4.37271
2 1.5389 -3.67773 4.2626
2 4.18313 -0.880979 -4.13677
2 10.9039 -0.0853536 0.0488573
2 5.38933 9.63464 -0.0320946
2 -5.37017 9.43027 -0.0795345
2 -10.6464 -0.0838764 0.0168218
2 -5.27858 -9.41914 0.0371245
3 5.283 -9.35493 -0.0646214
3 5.3931 -3.04513 8.83628
2 0.127741 6.40038 8.83576
3 -5.42348 -3.02134 9.11822
1 0.121397 -6.39057 -8.87854
2 5.41715 2.95236 -8.79304
2 -5.35238 3.05431 -8.82625
2 9.58928 2.26704 0.00920261
3 9.52979 -0.662676 2.23307
2 9.49543 0.655079 -2.14394
2 2.63988 9.63211 -0.0307914
3 3.98931 8.66515 2.1609
3 5.31799 7.69073 -2.19149
2 -6.63327 6.83499 -0.120958
2 -4.04895 8.49327 2.18532
2 -5.23025 7.76593 -2.2196
2 -9.31257 -2.56841 0.0884318
2 -9.55675 -0.918948 2.23422
2 -9.55663 0.736034 -2.14924
1 -2.73217 -9.57104 0.0467941
1 -5.35896 -8.19739 2.24848
3 -4.01831 -8.70986 -2.23877
1 6.64613 -7.09828 0.135649
2 5.4816 -7.77426 2.3054
2 4.14307 -8.74131 -2.26288
2 4.14755 -0.788255 8.89344
2 2.80429 -2.99528 8.94053
2 -1.31928 3.84357 8.93318
3 1.48372 -3.9436 -8.5486
1 -1.10908 -3.88147 -8.64621
3 2.75675 3.11934 -8.57898
2 8.29895 4.55114 -0.103906
3 8.16788 -1.44235 4.46161
3 8.20715 1.52517 -4.41037
2 0.157641 9.47047 -0.137181
2 2.68584 7.84342 4.18965
2 5.58404 6.21308 -4.51257
3 -7.89758 4.53771 0.0405012
2 -2.60221 7.75949 4.41712
1 -5.38827 6.20204 -4.4772
3 -8.03513 -4.88208 0.045582
3 -8.10618 -1.59513 4.54285
2 -8.07808 1.56228 -4.23025
2 0.078886 -9.50515 0.168062
2 -5.19506 -6.17981 4.47196
3 -2.48065 -7.90091 -4.30076
2 8.20339 -4.78424 0.034844
2 5.29316 -6.11872 4.52603
1 2.67184 -7.85076 -4.45373
1 2.75433 1.42781 8.92231
1 0.0721668 -3.08636 8.76831
2 -2.82301 1.46569 8.92022
2 2.76154 -1.68253 -8.66261
1 -2.63462 -1.57659 -8.61238
1 0.110196 2.99561 -8.62081
1 6.59293 6.98975 0.017909
2 6.80636 -2.36741 6.44301
3 6.76807 2.35408 -6.56444
2 -2.56634 9.58996 0.0795686
3 1.31433 7.23124 6.78504
3 5.66273 4.63226 -6.63452
1 -9.30696 2.12879 -0.0733402
1 -1.21374 7.10147 6.29372
3 -5.3713 4.76482 -6.62549
1 -6.54096 -7.01699 -0.114477
2 -6.84151 -2.31519 6.60833
2 -6.61649 2.22739 -6.59153
2 2.62822 -9.42893 -0.175243
1 -5.32408 -4.50827 6.76107
3 -1.23013 -7.09798 -6.54576
1 9.53406 -2.37948 0.187657
2 5.37413 -4.76418 6.67598
1 1.39716 -7.14824 -6.58495
2 1.2025 4.18273 8.63888
1 -2.78009 -2.97577 8.93343
3 -4.17416 -0.830242 8.94428
1 4.15499 0.895238 -8.67736
2 -4.04526 0.620063 -8.85119
1 -2.59294 3.1242 -8.66976
1 8.14515 2.99198 -2.2228
2 1.43672 8.55951 2.10246
1 -6.77891 5.20949 -2.32708
2 -8.08035 -3.27797 2.13197
1 -1.3903 -8.58251 -1.99082
3 6.56837 -5.44563 2.41363
3 1.3353 -0.861212 8.95426
3 0.179968 -1.48673 -8.87898
3 6.81236 4.03262 -4.28848
3 -0.0848146 7.88268 4.21372
2 -6.70136 3.80626 -4.48178
1 -6.82249 -3.91197 4.45723
2 0.140167 -7.83536 -4.372
2 6.69327 -3.58445 4.20978
2 -1.28289 -0.727795 8.93133
3 -1.47758 0.804607 -8.75691
3 8.36442 1.59347 2.10895
1 2.80903 7.87838 -2.16546
1 -5.42157 6.02849 2.25483
2 -8.06649 -1.67564 -2.19568
2 -2.83712 -7.83993 2.36145
3 5.37073 -6.2732 -2.10786
2 7.02104 0.920149 4.20624
3 2.8076 6.29154 -4.39389
1 -3.98887 5.26724 4.29768
2 -6.66591 -0.876482 -4.42482
1 -2.58174 -6.23808 4.5147
2 4.18045 -5.55136 -4.66048
2 5.44952 0.108683 6.60987
2 3.02607 4.64031 -6.46163
2 -2.68105 4.70425 6.56476
1 -5.26906 0.0251204 -6.74226
1 -2.59894 -4.56334 6.74803
1 2.79014 -4.75075 -6.57751
2 6.89617 5.42552 -2.11154
2 -1.39439 8.6736 2.10267
2 -8.08722 2.96375 -2.05959
1 -6.77061 -5.66642 2.28763
1 1.45387 -8.74394 -2.18792
1 8.16295 -3.08968 2.34865
3 -0.0277351 1.519 8.82373
2 1.47869 0.769383 -8.67577
1 6.64525 3.66649 2.29901
2 0.118738 7.74156 -2.26852
2 -6.58717 3.53867 2.17791
1 -6.65458 -4.07293 -2.23881
2 -0.0251573 -7.81549 2.24109
1 6.82048 -4.01003 -2.08457
3 5.41573 3.10368 4.5166
3 0.0323706 6.17826 -4.39348
2 -5.46652 3.09119 4.51891
1 -5.48016 -3.20884 -4.47798
2 0.027836 -6.21372 4.39928
1 5.3823 -3.15618 -4.19437
2 3.99034 2.31464 6.63407
1 0.11998 4.64739 -6.42027
1 -4.02017 2.29337 6.70162
2 -3.91919 -2.40445 -6.57034
2 0.0588844 -4.58266 6.65408
2 4.09073 -2.51579 -6.48867
2 5.36613 6.51262 2.22057
3 -2.58462 7.93653 -2.18298
1 -8.08965 1.47904 2.17501
2 -5.29359 -6.22645 -2.25295
2 2.64732 -7.71056 2.20079
3 8.27929 -1.74402 -2.15486
3 4.0618 5.65806 4.4803
2 -2.67554 6.27751 -4.42832
2 -6.56301 0.68262 4.57908
3 -3.8903 -5.54357 -4.60539
2 2.60635 -6.07098 4.37867
2 6.98096 -0.900565 -4.42676
1 2.77261 4.99395 6.58046
3 -2.73008 4.69425 -6.59522
1 -5.42332 -0.113008 6.74337
1 -2.41869 -4.77394 -6.61538
3 2.80671 -4.47405 6.5351
3 5.48598 -0.171055 -6.4887
3 13.567 -0.154878 0.155915
2 6.79979 11.823 -0.0589845
2 -6.84281 11.7891 0.132874
2 -13.5062 0.0732793 0.143043
1 -6.7828 -11.7858 0.167998
2 6.66495 -11.6214 -0.0119132
1 6.73671 -3.96472 11.0675
1 0.0365364 7.89374 11.1018
3 -6.79985 -3.84653 11.0516
1 -0.0795918 -7.92499 -10.8778
3 6.86732 3.75669 -10.8732
2 -6.73833 3.92417 -11.076
3 12.1753 2.40818 0.0464866
3 12.2 -0.74005 2.14686
1 12.1762 0.672446 -2.14138
2 3.8759 12.0257 -0.048728
3 5.33891 11.0699 2.05885
2 6.82649 9.91638 -2.25242
2 -8.10328 9.51323 -0.029807
2 -5.3 11.0259 2.12509
3 -6.67023 10.0557 -2.25881
2 -12.1114 -2.49302 -0.0969735
2 -12.1967 -0.75782 2.18276
3 -12.0431 0.64876 -2.20068
2 -3.97773 -11.9151 0.0994753
2 -6.67095 -10.3018 2.13736
2 -5.26085 -11.0593 -2.26738
3 8.07051 -9.45394 0.0792885
1 6.74875 -10.1604 2.32635
1 5.44874 -10.8838 -2.16214
2 5.61153 -1.43582 11.0135
3 4.04075 -3.74442 11.0573
2 -1.27501 5.48612 10.9458
3 1.49899 -5.65968 -11.1604
2 -1.28084 -5.58744 -10.8094
2 4.1888 3.73915 -11.015
3 10.776 4.63941 -0.00329196
1 10.7386 -1.53559 4.25563
1 10.8469 1.60732 -4.36705
2 1.18286 12.1131 0.0667539
3 4.14075 9.94134 4.29045
1 6.96575 8.22009 -4.40872
1 -9.05935 6.86823 -0.162113
2 -3.83519 10.0521 4.4178
2 -6.53311 8.50382 -4.39208
3 -10.7868 -4.77858 -0.0481356
3 -10.6569 -1.59021 4.43391
2 -10.8307 1.44061 -4.23318
2 -1.43046 -12.018 0.166433
2 -6.83534 -8.70985 4.56791
3 -3.9385 -10.1961 -4.36454
2 9.48865 -7.01573 -0.0673097
3 6.73604 -8.61553 4.45685
3 4.0465 -10.1711 -4.38087
3 4.28506 0.68668 10.9846
1 1.34073 -3.99835 10.9674
2 -2.58416 3.17263 10.9426
3 2.9285 -3.17707 -10.8867
2 -2.59543 -3.15515 -10.8588
3 1.55895 3.78177 -10.9027
1 9.35485 6.95898 0.0803099
3 9.49057 -2.2872 6.61114
2 9.34846 2.37239 -6.55028
2 -1.42452 11.9573 -0.070543
2 2.62683 9.45376 6.32075
1 6.90111 6.81212 -6.71904
1 -10.6272 4.60233 -0.0189413
3 -2.70699 9.40676 6.48126
3 -6.75601 7.04869 -6.5659
2 -9.48523 -7.15011 0.120849
1 -9.5245 -2.40201 6.65754
2 -9.56703 2.21218 -6.53883
1 1.34047 -11.9434 0.112235
1 -6.66923 -6.99163 6.70881
1 -2.68295 -9.47289 -6.54282
3 10.8777 -4.74092 -0.0536854
2 6.82059 -7.18515 6.48882
1 2.76019 -9.627 -6.66017
3 2.62759 3.26171 10.9025
3 -1.35592 -3.8763 10.9658
3 -4.15831 0.72593 10.9269
2 4.24024 -0.973553 -10.6676
3 -3.8624 -0.934147 -11.1341
1 -1.17433 3.77267 -10.9163
2 7.92303 9.31266 0.0623962
1 8.2427 -3.12507 8.79537
2 8.17091 3.04279 -8.7529
3 -4.02721 11.5971 -0.0205436
2 1.40831 8.81397 8.84506
3 6.84038 5.32555 -8.9157
3 -12.0148 2.42824 -0.0384631
2 -1.40728 8.48559 8.62847
2 -6.74115 5.41689 -8.64208
2 -7.8115 -9.45977 -0.00231913
3 -7.98526 -3.06693 8.97964
2 -8.21047 3.02143 -8.84302
3 4.04554 -11.594 -0.095824
2 -6.83428 -5.33877 8.86748
3 -1.28883 -8.6067 -8.73209
2 12.1329 -2.37424 0.0237094
2 6.82941 -5.35998 8.77204
3 1.34087 -8.66477 -8.91139
1 1.50577 5.46667 10.9166
2 -4.09071 -3.82163 10.9392
2 -5.35795 -1.51596 11.1227
3 5.57401 1.36985 -10.7856
3 -5.50809 1.34713 -10.9408
1 -4.07884 3.65777 -10.9002
2 10.9369 3.19758 -2.1341
2 2.71737 11.2989 2.24
1 -7.81675 7.72297 -2.34024
3 -10.7943 -3.14933 2.21024
2 -2.62157 -11.0621 -2.21035
1 8.23379 -7.70831 2.09526
2 2.95448 -1.43433 11.1476
1 0.356696 -3.34024 -10.8438
3 9.55041 3.87417 -4.32862
2 1.38002 10.1575 4.20953
3 -8.05048 5.88066 -4.46627
1 -9.37261 -3.88851 4.39193
2 -1.382 -10.3767 -4.41961
2 8.10046 -6.2676 4.29085
1 0.0846734 -1.57428 11.0918
2 -1.28772 -0.924115 -10.9295
3 8.08942 4.58746 -6.57977
3 0.0273502 9.34702 6.3948
2 -8.07044 4.43764 -6.47424
3 -8.21059 -4.6561 6.64008
3 0.0171761 -9.3218 -6.61095
1 8.32217 -4.69358 6.54885
3 -2.77591 -1.47649 11.0736
2 -2.45051 1.5442 -10.9919
3 10.9914 1.50244 2.21216
1 4.2412 10.1659 -2.1558
1 -6.59294 8.5776 2.14508
1 -10.5729 -1.63577 -2.06879
2 -4.03369 -10.3356 2.14688
1 6.69964 -8.56904 -2.14701
1 9.5995 0.870828 4.25645
1 4.19997 8.63708 -4.53169
1 -5.31702 7.94594 4.39668
2 -9.52239 -0.970923 -4.34191
3 -4.10336 -8.79665 4.43196
3 5.37503 -7.79634 -4.34142
1 8.10934 0.131389 6.62754
3 4.03031 7.01074 -6.64879
1 -4.15866 6.77856 6.68141
2 -8.24592 0.0589776 -6.46916
1 -3.97245 -7.18534 6.63301
1 4.1561 -7.254 -6.64289
2 7.04373 -0.783416 8.81666
2 4.24584 5.32242 -8.74132
1 -2.73996 6.18671 8.70707
2 -6.76709 0.798927 -8.72882
1 -4.0899 -5.28131 8.82789
3 2.95745 -6.27449 -8.76265
1 9.56998 5.40446 -2.2275
3 0.0285822 10.9927 2.13958
2 -9.45972 5.1242 -2.25417
1 -9.4484 -5.5645 2.19143
1 -0.103934 -10.9028 -2.21248
2 9.5163 -5.25799 2.20017
2 1.30485 0.916003 11.1659
1 1.51865 -0.823812 -10.9412
3 8.10163 6.13459 -4.39459
2 -1.24572 10.231 4.39579
3 -9.47544 3.72739 -4.35196
1 -8.02267 -6.43626 4.51532
2 1.48596 -10.2671 -4.32445
2 9.49508 -3.87451 4.37035
3 -1.33989 0.955157 11.082
1 0.139597 1.49095 -10.7852
2 9.63996 3.80492 2.12742
1 1.38356 10.1029 -2.39975
1 -8.0507 5.99239 2.16203
2 -9.60558 -4.1542 -2.24075
3 -1.29559 -10.2622 2.18167
2 7.97549 -6.39081 -1.98622
3 8.04999 3.1826 4.32977
2 1.55066 8.6125 -4.53027
2 -6.70113 5.37789 4.24857
2 -8.2836 -3.37003 -4.51346
2 -1.44892 -8.57369 4.40084
1 6.86828 -5.44529 -4.23925
2 6.80475 2.35812 6.68321
2 1.42111 6.88128 -6.5113
2 -5.4465 4.6899 6.82702
2 -6.79609 -2.41981 -6.83932
2 -1.28315 -7.23382 6.7242
2 5.60025 -4.77572 -6.51643
1 5.53046 1.56328 8.9001
2 1.47977 5.27547 -8.78484
3 -3.9892 3.87862 8.99725
2 -5.46668 -1.55873 -8.96646
1 -1.4186 -5.50501 8.87895
2 4.0984 -3.99151 -8.6954
3 8.16694 7.71128 -2.00495
3 -2.82724 10.8975 2.21793
3 -10.867 3.08208 -2.12396
2 -8.04733 -8.01412 2.13474
2 2.50816 -11.1929 -2.16018
3 11.0382 -3.15511 2.35101
2 0.0213732 3.06182 11.2143
3 2.77508 1.39958 -11.15
1 8.06758 5.9308 2.26874
2 -1.42586 10.1606 -2.24637
2 -9.41079 3.68988 2.06691
1 -7.94229 -6.32192 -2.21583
1 1.29555 -10.1857 2.33757
2 9.39801 -4.04631 -2.23251
2 6.60281 5.51995 4.34445
2 -1.21268 8.50368 -4.43922
1 -8.1569 3.10139 4.26682
1 -6.8391 -5.52307 -4.54918
2 1.29892 -8.70415 4.44384
2 8.22234 -3.02307 -4.47822
2 5.34092 4.64923 6.54433
3 -1.19411 7.06595 -6.59086
2 -6.81396 2.26889 6.75618
1 -5.55002 -4.86246 -6.77282
2 1.29664 -7.24772 6.6003
3 6.85124 -2.64966 -6.48042
1 4.01521 3.93069 8.54052
1 -1.29314 5.50376 -8.75081
3 -5.41844 1.58777 8.91549
1 -3.94856 -4.03397 -8.74095
2 1.49354 -5.45678 8.70536
3 5.69589 -1.88022 -8.61427
2 6.73371 8.67399 2.28054
2 -4.02587 10.2206 -2.26714
3 -10.7263 1.54015 2.23125
3 -6.51779 -8.82897 -2.20917
2 4.09649 -10.2235 2.24383
3 10.8029 -1.62224 -2.07257
3 5.47697 7.96507 4.32644
1 -3.84913 8.68802 -4.43809
1 -9.44574 0.631673 4.41504
2 -5.36655 -7.88872 -4.40794
2 3.9612 -8.52728 4.46144
2 9.61589 -0.781371 -4.40883
3 4.14997 7.22302 6.53524
1 -3.81454 6.93481 -6.65669
1 -8.15535 0.0527452 6.75081
2 -3.90795 -7.10297 -6.64911
2 3.99029 -6.97029 6.61052
2 8.15922 0.178695 -6.54762
3 2.70611 6.39491 8.78152
1 -4.05833 5.43622 -8.99056
2 -6.90162 -0.850247 9.03531
2 -2.59921 -6.39317 -8.72574
3 4.1813 -5.46268 8.79404
3 6.78017 0.756063 -8.67369
2 16.1408 -0.018298 0.0448514
2 8.18034 14.1049 0.0351162
3 -8.18626 13.8625 0.0653603
1 -16.1854 -0.00397501 0.101192
1 -8.12169 -14.1812 -0.103119
2 8.06099 -14.0397 0.0455369
3 8.0617 -4.8814 13.3586
2 -0.0223341 9.37974 13.1021
1 -8.24636 -4.65884 13.3727
1 -0.00385299 -9.44779 -13.0437
3 8.01371 4.64187 -12.9991
2 -8.15051 4.78102 -13.3128
3 14.8876 2.27756 -0.00874958
3 14.7775 -0.573655 2.22084
1 14.9279 0.695885 -2.07482
2 5.39838 14.4034 -0.0896467
2 6.75598 13.4447 2.05697
3 7.99586 12.2926 -2.31308
3 -9.46065 11.6521 0.090266
1 -6.53275 13.2824 2.23083
2 -8.00459 12.3881 -2.00255
1 -14.8054 -2.39234 -0.0656533
2 -14.8545 -0.698803 2.31153
2 -14.9022 0.668693 -1.9372
3 -5.36303 -14.1255 -0.0896556
3 -8.11854 -12.6039 2.28975
3 -6.80292 -13.1879 -2.15136
3 9.42158 -11.9108 0.102622
2 8.27271 -12.5374 2.2286
2 6.73254 -13.3578 -2.05914
1 6.79713 -2.42658 13.3233
3 5.36557 -4.68379 13.2642
1 -1.45769 6.97898 13.347
2 1.3507 -7.00947 -13.2092
2 -1.31108 -7.11175 -13.1409
2 5.35257 4.5402 -13.1606
2 13.3824 4.4986 0.0233054
1 13.4777 -1.56866 4.43261
2 13.5247 1.42601 -4.11906
1 2.46137 14.2152 -0.112954
3 5.49639 12.7056 4.35416
1 8.28016 11.1345 -4.47456
1 -10.6371 9.26968 -0.0456364
1 -5.24282 12.3595 4.48509
1 -8.07078 11.0049 -4.42093
3 -13.4218 -4.56532 -0.145261
3 -13.5675 -1.46701 4.34358
2 -13.6257 1.47259 -4.3631
1 -2.77793 -14.2263 0.199363
2 -8.0619 -11.0949 4.3952
1 -5.41174 -12.5575 -4.45964
2 10.7324 -9.49967 -0.0203692
3 8.08272 -11.1239 4.39867
2 5.3102 -12.4815 -4.18818
1 5.30223 0.0528404 13.2836
2 2.70935 -4.67417 13.1925
2 -2.73383 4.91037 13.1843
2 2.66389 -4.47467 -13.1687
1 -2.68203 -4.77976 -13.1207
2 2.62676 4.59788 -13.1587
2 12.2707 6.91397 0.0696934
3 12.1845 -2.35628 6.61346
2 12.1675 2.33887 -6.47955
3 -0.162439 14.2783 -0.0470612
2 4.01873 11.7275 6.3807
2 8.11057 9.35271 -6.71705
2 -12.1423 7.18974 0.143379
2 -3.96724 11.6752 6.60613
2 -7.94621 9.46897 -6.69586
2 -12.0927 -7.21699 0.0664043
3 -12.2069 -2.50173 6.63834
1 -12.1218 2.31083 -6.48915
3 -0.246519 -14.2514 0.207825
1 -8.23595 -9.39586 6.45794
2 -3.92844 -11.6713 -6.605
2 12.0536 -7.26857 -0.157461
3 8.02003 -9.45561 6.54192
2 3.91006 -11.749 -6.68675
2 4.04213 2.39834 12.9535
1 0.149376 -4.75717 13.1351
3 -4.14174 2.44086 13.2523
3 4.07735 -2.36849 -12.9365
2 -3.99587 -2.31927 -13.3194
3 0.109267 4.62049 -13.1014
1 10.7158 9.46408 0.0315861
1 10.9045 -3.12297 8.86743
1 10.6511 3.18685 -8.85087
3 -2.63285 14.0274 -0.0827992
3 2.77553 11.0411 8.80399
2 8.07752 7.79441 -8.92623
1 -13.4153 4.7715 -0.00846675
3 -2.69871 10.8208 8.70564
3 -7.91048 7.804 -8.87292
2 -10.8636 -9.57979 -0.0182074
2 -10.8666 -3.17173 8.74654
1 -10.89 3.11926 -8.86657
3 2.72382 -14.1889 0.198047
1 -8.17424 -7.84512 8.61684
1 -2.74491 -11.1268 -8.75978
1 13.4337 -4.68699 -0.32883
3 8.09116 -7.97641 8.73406
3 2.67792 -11.153 -8.84888
3 2.92096 4.76659 13.0854
1 -2.62819 -4.5956 13.1831
2 -5.51824 0.123083 13.1671
2 5.58398 0.0139865 -12.8863
1 -5.60055 -0.0645891 -13.247
3 -2.5714 4.54257 -13.022
3 9.36847 11.7576 -0.0780416
1 9.3602 -3.87842 10.9925
3 9.26873 3.9786 -10.9082
3 -5.33318 13.8781 -0.138194
1 1.28556 10.3043 11.0428
2 7.92593 6.21261 -11.008
2 -14.8771 2.35824 0.0343058
1 -1.36373 10.1705 11.1959
2 -7.85873 6.20013 -10.933
1 -9.43157 -11.9652 -0.0924934
2 -9.40608 -3.79216 11.0714
2 -9.54491 3.82832 -11.0701
2 5.36664 -14.0713 0.1942
3 -8.28848 -6.17276 11.0808
3 -1.46075 -10.1031 -10.9056
2 14.7612 -2.45074 -0.192693
3 8.07063 -6.26361 10.9164
2 1.26402 -10.3158 -10.8626
2 1.43628 7.15845 13.4105
1 -5.51288 -4.64474 13.3977
3 -6.81149 -2.26009 13.1907
2 6.89835 2.27963 -12.9961
1 -6.86258 2.42609 -13.3212
1 -5.2454 4.64085 -13.2371
2 13.4952 3.25212 -2.17068
1 3.92417 13.4618 2.19105
1 -9.28222 10.2218 -2.20717
2 -13.4879 -3.20172 2.12244
2 -4.16065 -13.3464 -2.24387
3 9.43404 -10.1096 2.06081
1 4.09193 -2.33596 13.3389
2 0.1474 -4.66515 -13.2577
1 12.109 4.13479 -4.31519
3 2.75036 12.7337 4.43601
2 -9.08676 8.53285 -4.35843
2 -12.1058 -3.83058 4.30392
3 -2.7212 -12.7504 -4.51829
2 9.20574 -8.71319 4.38329
1 1.45863 -2.39867 13.3528
2 -1.23753 -2.58861 -13.3426
2 10.8217 4.71366 -6.38818
2 1.35017 11.705 6.47497
2 -9.29767 6.9992 -6.54845
1 -10.9683 -4.65475 6.41496
3 -1.40977 -11.8953 -6.64876
1 9.36451 -7.13947 6.63441
2 -1.50582 -2.36446 13.1521
2 -2.60687 -0.00551003 -13.1644
2 9.38683 5.41312 -8.54237
2 -0.127876 11.0623 8.63844
2 -9.40457 5.47321 -8.6445
2 -9.46582 -5.4314 8.84421
1 0.00851656 -10.7784 -8.82027
1 9.39653 -5.67432 8.86085
1 -4.11875 -2.18482 13.2566
1 -4.04718 2.19618 -13.2058
3 13.5633 1.40623 2.1795
2 5.52282 12.4568 -2.40495
3 -7.9541 10.8814 2.24784
2 -13.4365 -1.60195 -2.16305
3 -5.24409 -12.7077 2.38759
1 8.10991 -11.0249 -2.3491
3 12.1828 0.752068 4.23621
2 5.52034 10.9833 -4.56637
2 -6.83556 10.115 4.38048
2 -12.0531 -0.91071 -4.32475
2 -5.22565 -11.0486 4.44189
1 6.71132 -9.9763 -4.58447
1 10.7642 0.0975951 6.45496
1 5.63427 9.18704 -6.63405
2 -5.33992 9.30861 6.68531
3 -10.8242 -0.251685 -6.54333
2 -5.58987 -9.68806 6.61562
3 5.48813 -9.40561 -6.56242
1 9.65398 -0.640491 8.81738
2 5.37267 7.81666 -8.99247
2 -3.94639 8.51838 8.83348
2 -9.66754 0.742828 -8.7506
1 -5.61179 -7.68201 8.77819
1 4.06239 -8.76739 -8.79364
2 8.10053 -1.62651 11.18
2 5.29642 6.05598 -10.9838
3 -2.6363 8.00206 10.8754
2 -8.22929 1.52195 -11.0756
3 -5.33493 -6.28085 10.9773
1 2.93951 -7.84921 -10.999
3 12.2504 5.52465 -2.23603
3 1.3506 13.3813 2.14061
2 -10.3972 7.67549 -2.17592
1 -12.1905 -5.35284 2.13256
2 -1.38832 -13.5701 -2.0742
2 10.7536 -7.95323 2.23195
3 2.57125 0.0958656 13.3264
3 1.44346 -2.39248 -13.0771
3 10.7123 6.26534 -4.45271
1 0.131318 12.3571 4.37348
3 -10.6042 6.43061 -4.33942
2 -10.7099 -6.33451 4.28205
2 0.00058325 -12.7392 -4.39096
1 10.7503 -6.22778 4.33549
2 -0.374584 -0.109674 13.107
1 -0.0798842 -0.184181 -13.2187
3 9.50782 7.1768 -6.56907
1 -1.4021 11.6728 6.59179
2 -10.8259 4.7765 -6.27697
2 -9.51843 -6.97505 6.4943
1 1.24937 -11.8987 -6.5459
1 10.9107 -4.6586 6.6242
1 -2.86977 0.0841585 13.1587
1 -1.21398 2.12091 -13.1828
2 12.1504 3.91675 2.21765
1 2.79529 12.4312 -2.39475
1 -9.35688 8.51358 2.12659
2 -12.1628 -4.1781 -2.29302
3 -2.51984 -12.7433 2.24482
3 9.34019 -8.60184 -2.14755
3 10.7753 3.13552 4.28809
2 2.90766 10.8659 -4.50317
3 -8.06474 7.71032 4.31763
3 -10.7583 -3.16489 -4.37073
1 -2.7575 -10.9732 4.46989
2 8.25817 -7.75667 -4.60798
2 9.54054 2.30914 6.54114
1 2.81612 9.4639 -6.64678
3 -6.91984 6.92636 6.44954
1 -9.65229 -2.42686 -6.50904
1 -2.76394 -9.53596 6.65884
2 6.83789 -6.97662 -6.66376
3 8.38698 1.55574 8.79545
2 2.78515 7.84508 -8.79858
3 -5.37586 6.22938 8.83161
1 -8.05442 -1.65862 -8.83507
2 -2.53341 -7.89981 9.02669
1 5.51515 -6.42796 -8.75694
2 6.9731 0.916301 10.9153
1 2.698 6.13502 -10.8194
1 -3.97378 5.57349 10.951
3 -6.88022 -0.788084 -11.0505
1 -2.51075 -6.18367 11.1795
2 4.13565 -5.3991 -10.8626
2 10.7913 7.66895 -2.31019
1 -1.31699 13.2499 2.11449
3 -11.9371 5.53915 -2.05129
3 -10.8162 -8.01974 2.07918
1 1.07243 -13.5731 -2.01407
1 12.0226 -5.36027 2.15567
2 1.34166 2.30131 13.3882
1 2.71864 -0.100778 -13.203
3 9.52421 8.65592 -4.31948
2 -2.71991 12.5405 4.28709
1 -12.1782 3.92159 -4.29162
1 -9.50487 -8.5951 4.41414
1 2.65536 -12.6199 -4.27704
2 12.2875 -3.69687 4.48715
2 -1.48838 2.5784 13.2398
2 1.50388 2.34788 -13.1236
3 10.698 6.23713 2.15263
2 0.0821576 12.4509 -2.50627
3 -10.7619 6.19497 2.05818
3 -10.7151 -6.46119 -2.03448
2 0.140552 -12.5535 2.32219
2 10.8303 -6.23116 -2.25644
3 9.34684 5.38215 4.28308
2 0.231997 11.0301 -4.58563
2 -9.47917 5.42117 4.43092
1 -9.4751 -5.66922 -4.35212
2 0.0518412 -11.0998 4.48785
2 9.4701 -5.54596 -4.40144
2 8.16457 4.63414 6.45328
2 0.233749 9.52058 -6.77781
1 -8.07896 4.6283 6.56095
3 -8.33733 -4.77025 -6.75516
2 0.0139184 -9.63543 6.6982
3 8.22004 -4.72576 -6.65185
1 6.83981 3.85818 8.76287
2 0.0534158 7.61969 -8.77888
3 -6.78499 4.11046 8.96636
2 -6.61799 -4.02711 -9.01133
1 0.181853 -7.80446 8.84485
3 6.86996 -4.13157 -8.85138
2 5.29433 3.12347 10.8678
3 -0.0597126 6.28241 -10.9196
1 -5.31961 3.0005 11.0863
1 -5.32858 -3.10702 -11.0953
3 -0.0110206 -6.39318 10.9064
3 5.37744 -3.28578 -10.8708
2 9.41476 9.98274 -2.0085
1 -4.00583 13.3562 2.13279
2 -13.4974 3.27504 -2.10584
1 -9.59477 -10.3491 2.26963
2 3.81065 -13.3436 -1.95953
2 13.5778 -3.10694 2.09179
2 0.132167 4.71431 13.2586
3 4.14359 2.02082 -13.0396
2 9.61966 8.64038 2.26722
1 -2.62206 12.5048 -2.41045
3 -11.9455 3.91903 2.11608
1 -9.24808 -8.77513 -2.26649
3 2.66093 -12.3975 2.35278
1 12.1992 -3.73474 -2.35762
2 8.09575 7.65893 4.31318
2 -2.46111 11.0118 -4.35389
2 -10.7655 3.20903 4.27144
3 -8.0935 -7.84537 -4.43342
2 2.78501 -11.0188 4.56568
2 10.8603 -3.01894 -4.403
2 6.58273 7.0132 6.60338
2 -2.76758 9.27574 -6.79496
2 -9.60804 2.27195 6.52254
2 -6.83592 -7.30751 -6.60205
1 2.63994 -9.44029 6.65213
1 9.51599 -2.45823 -6.61634
1 5.38729 6.35626 8.78497
2 -2.62107 7.80435 -9.07549
3 -8.13836 1.37538 8.91247
2 -5.46903 -6.52994 -8.78178
1 2.93273 -7.77662 8.86996
3 8.14285 -1.54965 -8.68454
2 4.11233 5.55156 10.759
2 -2.59447 6.20528 -11.0499
2 -6.84777 0.909012 11.067
1 -4.27214 -5.51525 -11.0653
1 2.71663 -6.10513 11.0779
2 6.90264 -0.776255 -10.8107
2 8.07974 11.0273 2.12264
1 -5.42932 12.3754 -2.13083
1 -13.3568 1.77402 2.19772
2 -8.07247 -11.1142 -2.06142
1 5.63107 -12.6099 2.23654
3 13.5832 -1.6904 -2.28286
3 6.60639 10.2053 4.28022
2 -5.26238 10.9228 -4.44857
2 -12.2525 0.839651 4.27125
1 -6.66964 -10.2922 -4.35744
2 5.49139 -10.8572 4.49006
3 12.1425 -0.80964 -4.39946
3 5.37794 9.37618 6.42389
2 -5.35444 9.35278 -6.57174
2 -10.9106 -0.191163 6.68062
3 -5.34054 -9.51105 -6.48725
2 5.42606 -9.45596 6.73778
1 10.7932 0.189169 -6.63087
1 4.08376 8.78264 8.79866
2 -5.40894 7.57564 -8.74742
2 -9.48637 -0.880658 8.86868
2 -3.96451 -8.7776 -8.68769
1 5.60325 -7.75048 8.72161
2 9.52091 0.825477 -8.92594
1 2.73586 7.86992 10.9958
2 -5.30477 6.15408 -11.0875
2 -8.1622 -1.60321 11.146
2 -2.78418 -7.98653 -10.8608
3 5.49326 -6.193 10.8399
2 8.31533 1.68746 -10.9926
3 18.6433 4.95945e-05 0.12705
1 9.39892 16.6589 0.0415019
3 -9.38658 16.4114 0.10218
1 -18.7325 -0.177983 0.105477
1 -9.434 -16.5299 0.0850422
3 9.45828 -16.4348 -0.0578893
1 9.38002 -5.45404 15.5686
3 0.128125 10.9277 15.1863
3 -9.48877 -5.53689 15.6187
3 -0.0167818 -10.9959 -15.6121
2 9.44059 5.31881 -15.6806
3 -9.46688 5.48234 -15.4449
1 17.5208 2.35248 -0.0339306
3 17.4774 -0.723722 2.30465
2 17.6445 0.849053 -2.12327
2 6.75946 16.6405 -0.0873517
2 8.15131 15.6855 2.45603
2 9.42352 15.1188 -2.26556
3 -10.6578 14.009 0.0940783
2 -7.95613 15.5269 2.11538
1 -9.4543 14.9067 -1.96605
1 -17.404 -2.48802 0.031954
2 -17.4878 -0.65891 2.36164
2 -17.5555 0.734532 -2.20767
2 -6.97079 -16.5156 -0.105633
2 -9.235 -14.8758 2.35114
3 -8.18546 -15.6116 -2.23237
2 10.6629 -14.1606 -0.00342183
1 9.41155 -14.8903 2.30417
2 8.18636 -15.6415 -2.16895
3 8.06466 -3.02336 15.5353
3 6.72315 -5.50524 15.4928
3 -1.42922 8.60982 15.3569
2 1.46452 -8.7998 -15.3798
1 -1.32442 -8.62346 -15.5423
3 6.64704 5.41113 -15.328
3 16.1722 4.55742 0.0322481
3 16.2552 -1.56259 4.67389
2 16.1008 1.43457 -4.45989
1 4.09236 16.5523 -0.0798084
2 6.63275 14.7008 4.47434
3 9.49516 13.5366 -4.43506
2 -12.1418 11.891 0.244746
2 -6.50408 14.8406 4.38429
3 -9.42217 13.4005 -4.32828
1 -15.9231 -4.75603 -0.180201
1 -16.3314 -1.65626 4.3463
1 -16.2346 1.36257 -4.41245
1 -4.08413 -16.454 0.141513
1 -9.56284 -13.469 4.4953
2 -6.98172 -14.9248 -4.47259
1 12.1562 -11.7494 0.11903
1 9.43051 -13.4415 4.58293
1 6.84746 -15.1754 -4.3885
1 6.82759 -0.857018 15.3819
1 4.00443 -5.48546 15.4081
3 -2.61537 6.20588 15.5405
2 2.45545 -6.14977 -15.5851
3 -2.93282 -6.30696 -15.4136
2 4.11391 5.50518 -15.1703
2 14.9238 7.08357 0.0975498
3 14.9077 -2.45754 6.68763
2 14.69 2.29386 -6.43427
2 1.30117 16.4405 -0.109217
3 5.23033 14.2872 6.65751
2 9.45118 11.8115 -6.6871
2 -13.4075 9.44237 -0.076536
1 -5.43876 13.8637 6.89414
3 -9.31409 11.7766 -6.72666
3 -14.7257 -7.10585 -0.0537675
1 -14.924 -2.34253 6.5173
2 -14.7337 2.20347 -6.58533
2 -1.27489 -16.6364 0.026466
3 -9.55223 -11.8834 6.7973
1 -5.57669 -14.3838 -6.57502
2 13.5668 -9.37505 -0.0398132
2 9.50171 -11.7888 6.70568
2 5.43262 -14.1512 -6.66746
2 5.05671 1.58072 15.2636
1 1.4867 -5.48335 15.3637
2 -3.92767 4.0722 15.3298
2 4.01428 -3.86765 -15.4914
3 -4.09856 -3.81556 -15.3237
2 1.30783 5.35402 -15.2919
3 13.4746 9.396 0.121168
2 13.6631 -3.1386 8.82276
2 13.5122 3.05213 -8.61672
2 -1.35444 16.5626 -0.24369
2 4.05149 13.3389 8.82699
1 9.61596 10.2046 -8.78731
2 -14.8552 7.05028 -0.00157036
2 -4.0468 13.0859 8.93635
1 -9.4052 10.2484 -8.89853
3 -13.5023 -9.5691 -0.0196172
3 -13.6981 -3.18421 8.88211
1 -13.5415 3.17732 -8.79719
3 1.38047 -16.4275 0.205878
2 -9.49003 -10.2536 8.66518
3 -4.34451 -13.5 -8.71884
2 14.7596 -6.76586 0.0234267
1 9.44964 -10.2845 8.68632
2 4.08564 -13.5346 -8.69821
2 4.02935 3.93757 15.4056
2 -1.35137 -5.40987 15.607
2 -5.40844 1.601 15.3924
2 5.56444 -1.5211 -15.2472
3 -5.40146 -1.62712 -15.3517
1 -1.35329 5.51628 -15.2745
1 11.9314 11.8235 -0.0698916
1 12.1219 -3.99544 11.0517
2 11.8814 3.80665 -10.9771
3 -4.06592 16.4436 -0.290607
2 2.71071 12.4525 10.9465
2 9.37885 8.68005 -11.1126
2 -16.4243 4.53448 -0.0632478
1 -2.56927 12.499 11.0156
2 -9.30516 8.46415 -10.9826
3 -12.1016 -11.7581 -0.212849
1 -12.1783 -3.81598 10.9243
1 -12.1669 3.82029 -11.2089
2 4.08931 -16.4491 -0.0356348
2 -9.34221 -8.40243 11.0031
3 -2.88102 -12.5706 -11.0065
2 16.117 -4.65704 -0.0312151
2 9.51823 -8.61648 10.8765
2 2.79785 -12.4144 -10.8709
2 2.7256 6.17201 15.5247
2 -4.22421 -5.50757 15.5525
1 -6.86322 -0.627163 15.4589
1 6.92264 0.822453 -15.3267
3 -6.94059 0.698245 -15.2452
2 -3.90391 5.37382 -15.3784
3 10.8756 14.4359 -0.0191589
1 10.7773 -4.89839 13.4042
2 10.669 4.80934 -13.327
1 -6.68997 16.2818 0.00484172
3 1.44468 11.6936 13.0569
3 9.30289 7.1487 -13.2162
3 -17.5447 2.21722 0.0907806
3 -1.3595 11.664 13.3153
3 -9.48653 7.07197 -13.0893
1 -10.7489 -14.1328 -0.0380749
3 -10.9112 -4.65497 13.1576
2 -10.9182 4.8072 -13.1883
1 6.7066 -16.4826 0.00458143
2 -9.57724 -6.97564 13.2517
3 -1.4703 -11.7192 -13.1391
3 17.5359 -2.58234 -0.102769
2 9.28973 -7.29157 13.0143
2 1.06224 -11.7149 -13.4291
2 1.23917 8.55038 15.444
2 -6.84865 -5.42042 15.4819
3 -8.05856 -3.07133 15.438
1 8.30273 3.09153 -15.3698
3 -8.19096 3.10515 -15.5575
2 -6.85153 5.28624 -15.4259
3 16.1653 3.07325 -2.31123
2 5.26411 15.6947 2.15506
1 -10.7488 12.5157 -2.25551