4486
 Atoms. Timestep: 0
1 -0 0 0
3 2.75 0 0
2 1.375 2.38157 0
3 -1.375 2.38157 0
2 -2.75 0 0
1 -1.375 -2.38157 0
2 1.375 -2.38157 0
3 1.375 -0.79386 2.24537
2 -0 1.58771 2.24537
2 -1.375 -0.79386 2.24537
1 -0 -1.58771 -2.24537
2 1.375 0.79386 -2.24537
2 -1.375 0.79386 -2.24537
3 5.5 0 0
3 2.75 4.76314 0
2 -2.75 4.76314 0
2 -5.5 0 0
3 -2.75 -4.76314 0
1 2.75 -4.76314 0
2 2.75 -1.58771 4.49073
2 -0 3.17543 4.49073
3 -2.75 -1.58771 4.49073
2 -0 -3.17543 -4.49073
1 2.75 1.58771 -4.49073
1 -2.75 1.58771 -4.49073
1 4.125 2.38157 0
3 4.125 -0.79386 2.24537
1 4.125 0.79386 -2.24537
2 -0 4.76314 0
1 1.375 3.96928 2.24537
2 2.75 3.17543 -2.24537
3 -4.125 2.38157 0
1 -1.375 3.96928 2.24537
3 -2.75 3.17543 -2.24537
1 -4.125 -2.38157 0
1 -4.125 -0.79386 2.24537
2 -4.125 0.79386 -2.24537
2 -0 -4.76314 0
3 -2.75 -3.17543 2.24537
2 -1.375 -3.96928 -2.24537
2 4.125 -2.38157 0
2 2.75 -3.17543 2.24537
2 1.375 -3.96928 -2.24537
2 1.375 0.79386 4.49073
3 -0 -1.58771 4.49073
3 -1.375 0.79386 4.49073
2 1.375 -0.79386 -4.49073
2 -1.375 -0.79386 -4.49073
2 -0 1.58771 -4.49073
2 2.75 1.58771 2.24537
3 -0 3.17543 -2.24537
1 -2.75 1.58771 2.24537
3 -2.75 -1.58771 -2.24537
2 -0 -3.17543 2.24537
1 2.75 -1.58771 -2.24537
2 8.25 0 0
1 4.125 7.14471 0
2 -4.125 7.14471 0
1 -8.25 0 0
2 -4.125 -7.14471 0
3 4.125 -7.14471 0
3 4.125 -2.38157 6.7361
3 -0 4.76314 6.7361
2 -4.125 -2.38157 6.7361
2 -0 -4.76314 -6.7361
1 4.125 2.38157 -6.7361
2 -4.125 2.38157 -6.7361
2 6.875 2.38157 0
3 6.875 -0.79386 2.24537
3 6.875 0.79386 -2.24537
1 1.375 7.14471 0
2 2.75 6.35085 2.24537
1 4.125 5.557 -2.24537
2 -5.5 4.76314 0
2 -2.75 6.35085 2.24537
3 -4.125 5.557 -2.24537
2 -6.875 -2.38157 0
3 -6.875 -0.79386 2.24537
2 -6.875 0.79386 -2.24537
2 -1.375 -7.14471 0
2 -4.125 -5.557 2.24537
2 -2.75 -6.35085 -2.24537
3 5.5 -4.76314 0
2 4.125 -5.557 2.24537
2 2.75 -6.35085 -2.24537
3 2.75 0 6.7361
3 1.375 -2.38157 6.7361
3 -1.375 2.38157 6.7361
2 1.375 -2.38157 -6.7361
1 -1.375 -2.38157 -6.7361
1 1.375 2.38157 -6.7361
3 5.5 4.76314 0
2 5.5 -1.58771 4.49073
1 5.5 1.58771 -4.49073
1 -1.375 7.14471 0
3 1.375 5.557 4.49073
1 4.125 3.96928 -4.49073
3 -6.875 2.38157 0
3 -1.375 5.557 4.49073
1 -4.125 3.96928 -4.49073
1 -5.5 -4.76314 0
2 -5.5 -1.58771 4.49073
2 -5.5 1.58771 -4.49073
2 1.375 -7.14471 0
2 -4.125 -3.96928 4.49073
2 -1.375 -5.557 -4.49073
2 6.875 -2.38157 0
1 4.125 -3.96928 4.49073
1 1.375 -5.557 -4.49073
2 1.375 2.38157 6.7361
2 -1.375 -2.38157 6.7361
1 -2.75 0 6.7361
2 2.75 0 -6.7361
3 -2.75 0 -6.7361
2 -1.375 2.38157 -6.7361
1 5.5 3.17543 -2.24537
1 -0 6.35085 2.24537
2 -5.5 3.17543 -2.24537
2 -5.5 -3.17543 2.24537
2 -0 -6.35085 -2.24537
2 5.5 -3.17543 2.24537
1 -0 0 6.7361
1 -0 0 -6.7361
1 5.5 1.58771 2.24537
3 1.375 5.557 -2.24537
1 -4.125 3.96928 2.24537
1 -5.5 -1.58771 -2.24537
2 -1.375 -5.557 2.24537
2 4.125 -3.96928 -2.24537
2 4.125 0.79386 4.49073
3 1.375 3.96928 -4.49073
2 -2.75 3.17543 4.49073
3 -4.125 -0.79386 -4.49073
3 -1.375 -3.96928 4.49073
2 2.75 -3.17543 -4.49073
1 4.125 3.96928 2.24537
1 -1.375 5.557 -2.24537
1 -5.5 1.58771 2.24537
3 -4.125 -3.96928 -2.24537
1 1.375 -5.557 2.24537
2 5.5 -1.58771 -2.24537
3 2.75 3.17543 4.49073
2 -1.375 3.96928 -4.49073
2 -4.125 0.79386 4.49073
3 -2.75 -3.17543 -4.49073
2 1.375 -3.96928 4.49073
3 4.125 -0.79386 -4.49073
3 11 0 0
1 5.5 9.52628 0
2 -5.5 9.52628 0
1 -11 0 0
3 -5.5 -9.52628 0
2 5.5 -9.52628 0
1 5.5 -3.17543 8.98146
2 -0 6.35085 8.98146
1 -5.5 -3.17543 8.98146
1 -0 -6.35085 -8.98146
2 5.5 3.17543 -8.98146
2 -5.5 3.17543 -8.98146
2 9.625 2.38157 0
2 9.625 -0.79386 2.24537
3 9.625 0.79386 -2.24537
2 2.75 9.52628 0
1 4.125 8.73242 2.24537
3 5.5 7.93857 -2.24537
3 -6.875 7.14471 0
2 -4.125 8.73242 2.24537
2 -5.5 7.93857 -2.24537
1 -9.625 -2.38157 0
2 -9.625 -0.79386 2.24537
2 -9.625 0.79386 -2.24537
2 -2.75 -9.52628 0
2 -5.5 -7.93857 2.24537
2 -4.125 -8.73242 -2.24537
2 6.875 -7.14471 0
3 5.5 -7.93857 2.24537
3 4.125 -8.73242 -2.24537
1 4.125 -0.79386 8.98146
2 2.75 -3.17543 8.98146
2 -1.375 3.96928 8.98146
2 1.375 -3.96928 -8.98146
3 -1.375 -3.96928 -8.98146
3 2.75 3.17543 -8.98146
3 8.25 4.76314 0
3 8.25 -1.58771 4.49073
2 8.25 1.58771 -4.49073
2 -0 9.52628 0
2 2.75 7.93857 4.49073
3 5.5 6.35085 -4.49073
2 -8.25 4.76314 0
3 -2.75 7.93857 4.49073
2 -5.5 6.35085 -4.49073
2 -8.25 -4.76314 0
2 -8.25 -1.58771 4.49073
1 -8.25 1.58771 -4.49073
1 -0 -9.52628 0
1 -5.5 -6.35085 4.49073
2 -2.75 -7.93857 -4.49073
3 8.25 -4.76314 0
2 5.5 -6.35085 4.49073
3 2.75 -7.93857 -4.49073
3 2.75 1.58771 8.98146
1 -0 -3.17543 8.98146
3 -2.75 1.58771 8.98146
1 2.75 -1.58771 -8.98146
2 -2.75 -1.58771 -8.98146
2 -0 3.17543 -8.98146
2 6.875 7.14471 0
3 6.875 -2.38157 6.7361
3 6.875 2.38157 -6.7361
3 -2.75 9.52628 0
2 1.375 7.14471 6.7361
3 5.5 4.76314 -6.7361
3 -9.625 2.38157 0
2 -1.375 7.14471 6.7361
1 -5.5 4.76314 -6.7361
1 -6.875 -7.14471 0
3 -6.875 -2.38157 6.7361
1 -6.875 2.38157 -6.7361
1 2.75 -9.52628 0
2 -5.5 -4.76314 6.7361
1 -1.375 -7.14471 -6.7361
1 9.625 -2.38157 0
3 5.5 -4.76314 6.7361
3 1.375 -7.14471 -6.7361
2 1.375 3.96928 8.98146
3 -2.75 -3.17543 8.98146
3 -4.125 -0.79386 8.98146
3 4.125 0.79386 -8.98146
2 -4.125 0.79386 -8.98146
2 -2.75 3.17543 -8.98146
1 8.25 3.17543 -2.24537
1 1.375 8.73242 2.24537
1 -6.875 5.557 -2.24537
3 -8.25 -3.17543 2.24537
1 -1.375 -8.73242 -2.24537
2 6.875 -5.557 2.24537
3 1.375 -0.79386 8.98146
1 -0 -1.58771 -8.98146
3 6.875 3.96928 -4.49073
1 -0 7.93857 4.49073
1 -6.875 3.96928 -4.49073
3 -6.875 -3.96928 4.49073
1 -0 -7.93857 -4.49073
2 6.875 -3.96928 4.49073
1 -1.375 -0.79386 8.98146
1 -1.375 0.79386 -8.98146
3 8.25 1.58771 2.24537
3 2.75 7.93857 -2.24537
3 -5.5 6.35085 2.24537
2 -8.25 -1.58771 -2.24537
2 -2.75 -7.93857 2.24537
1 5.5 -6.35085 -2.24537
3 6.875 0.79386 4.49073
2 2.75 6.35085 -4.49073
2 -4.125 5.557 4.49073
3 -6.875 -0.79386 -4.49073
2 -2.75 -6.35085 4.49073
1 4.125 -5.557 -4.49073
2 5.5 0 6.7361
1 2.75 4.76314 -6.7361
2 -2.75 4.76314 6.7361
2 -5.5 0 -6.7361
1 -2.75 -4.76314 6.7361
3 2.75 -4.76314 -6.7361
2 6.875 5.557 -2.24537
3 -1.375 8.73242 2.24537
2 -8.25 3.17543 -2.24537
1 -6.875 -5.557 2.24537
2 1.375 -8.73242 -2.24537
3 8.25 -3.17543 2.24537
3 -0 1.58771 8.98146
3 1.375 0.79386 -8.98146
1 6.875 3.96928 2.24537
2 -0 7.93857 -2.24537
2 -6.875 3.96928 2.24537
2 -6.875 -3.96928 -2.24537
2 -0 -7.93857 2.24537
3 6.875 -3.96928 -2.24537
2 5.5 3.17543 4.49073
2 -0 6.35085 -4.49073
1 -5.5 3.17543 4.49073
3 -5.5 -3.17543 -4.49073
2 -0 -6.35085 4.49073
1 5.5 -3.17543 -4.49073
2 4.125 2.38157 6.7361
2 -0 4.76314 -6.7361
1 -4.125 2.38157 6.7361
2 -4.125 -2.38157 -6.7361
1 -0 -4.76314 6.7361
2 4.125 -2.38157 -6.7361
2 5.5 6.35085 2.24537
2 -2.75 7.93857 -2.24537
1 -8.25 1.58771 2.24537
1 -5.5 -6.35085 -2.24537
2 2.75 -7.93857 2.24537
1 8.25 -1.58771 -2.24537
1 4.125 5.557 4.49073
1 -2.75 6.35085 -4.49073
1 -6.875 0.79386 4.49073
3 -4.125 -5.557 -4.49073
1 2.75 -6.35085 4.49073
1 6.875 -0.79386 -4.49073
1 2.75 4.76314 6.7361
3 -2.75 4.76314 -6.7361
2 -5.5 0 6.7361
2 -2.75 -4.76314 -6.7361
1 2.75 -4.76314 6.7361
2 5.5 0 -6.7361
2 13.75 0 0
3 6.875 11.9078 0
2 -6.875 11.9078 0
3 -13.75 0 0
1 -6.875 -11.9078 0
2 6.875 -11.9078 0
2 6.875 -3.96928 11.2268
3 -0 7.93857 11.2268
2 -6.875 -3.96928 11.2268
1 -0 -7.93857 -11.2268
2 6.875 3.96928 -11.2268
2 -6.875 3.96928 -11.2268
1 12.375 2.38157 0
2 12.375 -0.79386 2.24537
1 12.375 0.79386 -2.24537
1 4.125 11.9078 0
1 5.5 11.114 2.24537
2 6.875 10.3201 -2.24537
1 -8.25 9.52628 0
2 -5.5 11.114 2.24537
1 -6.875 10.3201 -2.24537
3 -12.375 -2.38157 0
1 -12.375 -0.79386 2.24537
2 -12.375 0.79386 -2.24537
2 -4.125 -11.9078 0
2 -6.875 -10.3201 2.24537
2 -5.5 -11.114 -2.24537
2 8.25 -9.52628 0
1 6.875 -10.3201 2.24537
3 5.5 -11.114 -2.24537
1 5.5 -1.58771 11.2268
1 4.125 -3.96928 11.2268
2 -1.375 5.557 11.2268
2 1.375 -5.557 -11.2268
2 -1.375 -5.557 -11.2268
3 4.125 3.96928 -11.2268
1 11 4.76314 0
2 11 -1.58771 4.49073
3 11 1.58771 -4.49073
3 1.375 11.9078 0
1 4.125 10.3201 4.49073
2 6.875 8.73242 -4.49073
3 -9.625 7.14471 0
1 -4.125 10.3201 4.49073
1 -6.875 8.73242 -4.49073
2 -11 -4.76314 0
2 -11 -1.58771 4.49073
1 -11 1.58771 -4.49073
2 -1.375 -11.9078 0
3 -6.875 -8.73242 4.49073
2 -4.125 -10.3201 -4.49073
2 9.625 -7.14471 0
3 6.875 -8.73242 4.49073
2 4.125 -10.3201 -4.49073
1 4.125 0.79386 11.2268
2 1.375 -3.96928 11.2268
1 -2.75 3.17543 11.2268
3 2.75 -3.17543 -11.2268
3 -2.75 -3.17543 -11.2268
3 1.375 3.96928 -11.2268
3 9.625 7.14471 0
2 9.625 -2.38157 6.7361
3 9.625 2.38157 -6.7361
2 -1.375 11.9078 0
2 2.75 9.52628 6.7361
2 6.875 7.14471 -6.7361
2 -11 4.76314 0
2 -2.75 9.52628 6.7361
1 -6.875 7.14471 -6.7361
2 -9.625 -7.14471 0
1 -9.625 -2.38157 6.7361
3 -9.625 2.38157 -6.7361
3 1.375 -11.9078 0
2 -6.875 -7.14471 6.7361
3 -2.75 -9.52628 -6.7361
1 11 -4.76314 0
2 6.875 -7.14471 6.7361
1 2.75 -9.52628 -6.7361
2 2.75 3.17543 11.2268
3 -1.375 -3.96928 11.2268
2 -4.125 0.79386 11.2268
3 4.125 -0.79386 -11.2268
3 -4.125 -0.79386 -11.2268
1 -1.375 3.96928 -11.2268
2 8.25 9.52628 0
3 8.25 -3.17543 8.98146
2 8.25 3.17543 -8.98146
2 -4.125 11.9078 0
2 1.375 8.73242 8.98146
1 6.875 5.557 -8.98146
3 -12.375 2.38157 0
3 -1.375 8.73242 8.98146
2 -6.875 5.557 -8.98146
3 -8.25 -9.52628 0
1 -8.25 -3.17543 8.98146
2 -8.25 3.17543 -8.98146
3 4.125 -11.9078 0
3 -6.875 -5.557 8.98146
1 -1.375 -8.73242 -8.98146
1 12.375 -2.38157 0
2 6.875 -5.557 8.98146
1 1.375 -8.73242 -8.98146
3 1.375 5.557 11.2268
1 -4.125 -3.96928 11.2268
2 -5.5 -1.58771 11.2268
3 5.5 1.58771 -11.2268
2 -5.5 1.58771 -11.2268
3 -4.125 3.96928 -11.2268
1 11 3.17543 -2.24537
2 2.75 11.114 2.24537
1 -8.25 7.93857 -2.24537
1 -11 -3.17543 2.24537
2 -2.75 -11.114 -2.24537
1 8.25 -7.93857 2.24537
3 2.75 -1.58771 11.2268
2 -0 -3.17543 -11.2268
1 9.625 3.96928 -4.49073
2 1.375 10.3201 4.49073
2 -8.25 6.35085 -4.49073
2 -9.625 -3.96928 4.49073
3 -1.375 -10.3201 -4.49073
2 8.25 -6.35085 4.49073
3 -0 -1.58771 11.2268
2 -1.375 -0.79386 -11.2268
2 8.25 4.76314 -6.7361
3 -0 9.52628 6.7361
2 -8.25 4.76314 -6.7361
2 -8.25 -4.76314 6.7361
2 -0 -9.52628 -6.7361
2 8.25 -4.76314 6.7361
2 -2.75 -1.58771 11.2268
1 -2.75 1.58771 -11.2268
1 11 1.58771 2.24537
2 4.125 10.3201 -2.24537
2 -6.875 8.73242 2.24537
2 -11 -1.58771 -2.24537
2 -4.125 -10.3201 2.24537
2 6.875 -8.73242 -2.24537
2 9.625 0.79386 4.49073
2 4.125 8.73242 -4.49073
1 -5.5 7.93857 4.49073
3 -9.625 -0.79386 -4.49073
2 -4.125 -8.73242 4.49073
1 5.5 -7.93857 -4.49073
2 8.25 0 6.7361
1 4.125 7.14471 -6.7361
3 -4.125 7.14471 6.7361
3 -8.25 0 -6.7361
2 -4.125 -7.14471 6.7361
3 4.125 -7.14471 -6.7361
1 6.875 -0.79386 8.98146
1 4.125 5.557 -8.98146
3 -2.75 6.35085 8.98146
2 -6.875 0.79386 -8.98146
1 -4.125 -5.557 8.98146
3 2.75 -6.35085 -8.98146
2 9.625 5.557 -2.24537
2 -0 11.114 2.24537
2 -9.625 5.557 -2.24537
2 -9.625 -5.557 2.24537
2 -0 -11.114 -2.24537
2 9.625 -5.557 2.24537
3 1.375 0.79386 11.2268
2 1.375 -0.79386 -11.2268
2 8.25 6.35085 -4.49073
2 -1.375 10.3201 4.49073
3 -9.625 3.96928 -4.49073
2 -8.25 -6.35085 4.49073
2 1.375 -10.3201 -4.49073
3 9.625 -3.96928 4.49073
2 -1.375 0.79386 11.2268
3 -0 1.58771 -11.2268
2 9.625 3.96928 2.24537
2 1.375 10.3201 -2.24537
2 -8.25 6.35085 2.24537
2 -9.625 -3.96928 -2.24537
2 -1.375 -10.3201 2.24537
2 8.25 -6.35085 -2.24537
2 8.25 3.17543 4.49073
2 1.375 8.73242 -4.49073
1 -6.875 5.557 4.49073
3 -8.25 -3.17543 -4.49073
2 -1.375 -8.73242 4.49073
2 6.875 -5.557 -4.49073
1 6.875 2.38157 6.7361
1 1.375 7.14471 -6.7361
3 -5.5 4.76314 6.7361
2 -6.875 -2.38157 -6.7361
1 -1.375 -7.14471 6.7361
1 5.5 -4.76314 -6.7361
3 5.5 1.58771 8.98146
2 1.375 5.557 -8.98146
3 -4.125 3.96928 8.98146
3 -5.5 -1.58771 -8.98146
1 -1.375 -5.557 8.98146
2 4.125 -3.96928 -8.98146
2 8.25 7.93857 -2.24537
2 -2.75 11.114 2.24537
2 -11 3.17543 -2.24537
2 -8.25 -7.93857 2.24537
2 2.75 -11.114 -2.24537
3 11 -3.17543 2.24537
3 -0 3.17543 11.2268
1 2.75 1.58771 -11.2268
2 8.25 6.35085 2.24537
2 -1.375 10.3201 -2.24537
3 -9.625 3.96928 2.24537
2 -8.25 -6.35085 -2.24537
2 1.375 -10.3201 2.24537
1 9.625 -3.96928 -2.24537
3 6.875 5.557 4.49073
2 -1.375 8.73242 -4.49073
1 -8.25 3.17543 4.49073
3 -6.875 -5.557 -4.49073
1 1.375 -8.73242 4.49073
3 8.25 -3.17543 -4.49073
2 5.5 4.76314 6.7361
3 -1.375 7.14471 -6.7361
2 -6.875 2.38157 6.7361
1 -5.5 -4.76314 -6.7361
2 1.375 -7.14471 6.7361
2 6.875 -2.38157 -6.7361
3 4.125 3.96928 8.98146
3 -1.375 5.557 -8.98146
3 -5.5 1.58771 8.98146
1 -4.125 -3.96928 -8.98146
1 1.375 -5.557 8.98146
1 5.5 -1.58771 -8.98146
2 6.875 8.73242 2.24537
1 -4.125 10.3201 -2.24537
2 -11 1.58771 2.24537
3 -6.875 -8.73242 -2.24537
2 4.125 -10.3201 2.24537
2 11 -1.58771 -2.24537
3 5.5 7.93857 4.49073
1 -4.125 8.73242 -4.49073
3 -9.625 0.79386 4.49073
2 -5.5 -7.93857 -4.49073
3 4.125 -8.73242 4.49073
2 9.625 -0.79386 -4.49073
2 4.125 7.14471 6.7361
1 -4.125 7.14471 -6.7361
2 -8.25 0 6.7361
1 -4.125 -7.14471 -6.7361
2 4.125 -7.14471 6.7361
3 8.25 0 -6.7361
2 2.75 6.35085 8.98146
2 -4.125 5.557 -8.98146
3 -6.875 -0.79386 8.98146
2 -2.75 -6.35085 -8.98146
2 4.125 -5.557 8.98146
2 6.875 0.79386 -8.98146
2 16.5 0 0
2 8.25 14.2894 0
3 -8.25 14.2894 0
3 -16.5 0 0
3 -8.25 -14.2894 0
1 8.25 -14.2894 0
2 8.25 -4.76314 13.4722
1 -0 9.52628 13.4722
2 -8.25 -4.76314 13.4722
1 -0 -9.52628 -13.4722
1 8.25 4.76314 -13.4722
2 -8.25 4.76314 -13.4722
2 15.125 2.38157 0
2 15.125 -0.79386 2.24537
2 15.125 0.79386 -2.24537
2 5.5 14.2894 0
1 6.875 13.4956 2.24537
2 8.25 12.7017 -2.24537
1 -9.625 11.9078 0
3 -6.875 13.4956 2.24537
2 -8.25 12.7017 -2.24537
1 -15.125 -2.38157 0
2 -15.125 -0.79386 2.24537
3 -15.125 0.79386 -2.24537
1 -5.5 -14.2894 0
2 -8.25 -12.7017 2.24537
2 -6.875 -13.4956 -2.24537
3 9.625 -11.9078 0
3 8.25 -12.7017 2.24537
1 6.875 -13.4956 -2.24537
1 6.875 -2.38157 13.4722
1 5.5 -4.76314 13.4722
2 -1.375 7.14471 13.4722
2 1.375 -7.14471 -13.4722
2 -1.375 -7.14471 -13.4722
3 5.5 4.76314 -13.4722
2 13.75 4.76314 0
2 13.75 -1.58771 4.49073
2 13.75 1.58771 -4.49073
3 2.75 14.2894 0
2 5.5 12.7017 4.49073
1 8.25 11.114 -4.49073
3 -11 9.52628 0
2 -5.5 12.7017 4.49073
3 -8.25 11.114 -4.49073
3 -13.75 -4.76314 0
2 -13.75 -1.58771 4.49073
2 -13.75 1.58771 -4.49073
2 -2.75 -14.2894 0
3 -8.25 -11.114 4.49073
2 -5.5 -12.7017 -4.49073
2 11 -9.52628 0
3 8.25 -11.114 4.49073
3 5.5 -12.7017 -4.49073
1 5.5 0 13.4722
1 2.75 -4.76314 13.4722
1 -2.75 4.76314 13.4722
1 2.75 -4.76314 -13.4722
2 -2.75 -4.76314 -13.4722
2 2.75 4.76314 -13.4722
2 12.375 7.14471 0
2 12.375 -2.38157 6.7361
1 12.375 2.38157 -6.7361
1 -0 14.2894 0
2 4.125 11.9078 6.7361
2 8.25 9.52628 -6.7361
1 -12.375 7.14471 0
2 -4.125 11.9078 6.7361
3 -8.25 9.52628 -6.7361
3 -12.375 -7.14471 0
1 -12.375 -2.38157 6.7361
3 -12.375 2.38157 -6.7361
3 -0 -14.2894 0
2 -8.25 -9.52628 6.7361
1 -4.125 -11.9078 -6.7361
2 12.375 -7.14471 0
2 8.25 -9.52628 6.7361
3 4.125 -11.9078 -6.7361
3 4.125 2.38157 13.4722
1 -0 -4.76314 13.4722
2 -4.125 2.38157 13.4722
2 4.125 -2.38157 -13.4722
2 -4.125 -2.38157 -13.4722
1 -0 4.76314 -13.4722
3 11 9.52628 0
1 11 -3.17543 8.98146
2 11 3.17543 -8.98146
2 -2.75 14.2894 0
1 2.75 11.114 8.98146
1 8.25 7.93857 -8.98146
2 -13.75 4.76314 0
2 -2.75 11.114 8.98146
1 -8.25 7.93857 -8.98146
3 -11 -9.52628 0
1 -11 -3.17543 8.98146
1 -11 3.17543 -8.98146
1 2.75 -14.2894 0
1 -8.25 -7.93857 8.98146
2 -2.75 -11.114 -8.98146
2 13.75 -4.76314 0
1 8.25 -7.93857 8.98146
3 2.75 -11.114 -8.98146
2 2.75 4.76314 13.4722
3 -2.75 -4.76314 13.4722
2 -5.5 0 13.4722
1 5.5 0 -13.4722
3 -5.5 0 -13.4722
1 -2.75 4.76314 -13.4722
1 9.625 11.9078 0
1 9.625 -3.96928 11.2268
1 9.625 3.96928 -11.2268
1 -5.5 14.2894 0
3 1.375 10.3201 11.2268
1 8.25 6.35085 -11.2268
3 -15.125 2.38157 0
1 -1.375 10.3201 11.2268
2 -8.25 6.35085 -11.2268
1 -9.625 -11.9078 0
1 -9.625 -3.96928 11.2268
2 -9.625 3.96928 -11.2268
3 5.5 -14.2894 0
3 -8.25 -6.35085 11.2268
3 -1.375 -10.3201 -11.2268
2 15.125 -2.38157 0
3 8.25 -6.35085 11.2268
3 1.375 -10.3201 -11.2268
3 1.375 7.14471 13.4722
1 -5.5 -4.76314 13.4722
2 -6.875 -2.38157 13.4722
2 6.875 2.38157 -13.4722
2 -6.875 2.38157 -13.4722
3 -5.5 4.76314 -13.4722
2 13.75 3.17543 -2.24537
1 4.125 13.4956 2.24537
3 -9.625 10.3201 -2.24537
1 -13.75 -3.17543 2.24537
1 -4.125 -13.4956 -2.24537
3 9.625 -10.3201 2.24537
2 4.125 -2.38157 13.4722
2 -0 -4.76314 -13.4722
1 12.375 3.96928 -4.49073
3 2.75 12.7017 4.49073
3 -9.625 8.73242 -4.49073
2 -12.375 -3.96928 4.49073
2 -2.75 -12.7017 -4.49073
2 9.625 -8.73242 4.49073
2 1.375 -2.38157 13.4722
1 -1.375 -2.38157 -13.4722
2 11 4.76314 -6.7361
3 1.375 11.9078 6.7361
2 -9.625 7.14471 -6.7361
2 -11 -4.76314 6.7361
2 -1.375 -11.9078 -6.7361
2 9.625 -7.14471 6.7361
1 -1.375 -2.38157 13.4722
2 -2.75 0 -13.4722
2 9.625 5.557 -8.98146
1 -0 11.114 8.98146
3 -9.625 5.557 -8.98146
1 -9.625 -5.557 8.98146
3 -0 -11.114 -8.98146
3 9.625 -5.557 8.98146
1 -4.125 -2.38157 13.4722
1 -4.125 2.38157 -13.4722
3 13.75 1.58771 2.24537
3 5.5 12.7017 -2.24537
1 -8.25 11.114 2.24537
2 -13.75 -1.58771 -2.24537
2 -5.5 -12.7017 2.24537
1 8.25 -11.114 -2.24537
3 12.375 0.79386 4.49073
3 5.5 11.114 -4.49073
2 -6.875 10.3201 4.49073
2 -12.375 -0.79386 -4.49073
2 -5.5 -11.114 4.49073
1 6.875 -10.3201 -4.49073
3 11 0 6.7361
3 5.5 9.52628 -6.7361
2 -5.5 9.52628 6.7361
3 -11 0 -6.7361
3 -5.5 -9.52628 6.7361
2 5.5 -9.52628 -6.7361
3 9.625 -0.79386 8.98146
2 5.5 7.93857 -8.98146
2 -4.125 8.73242 8.98146
1 -9.625 0.79386 -8.98146
3 -5.5 -7.93857 8.98146
3 4.125 -8.73242 -8.98146
3 8.25 -1.58771 11.2268
1 5.5 6.35085 -11.2268
3 -2.75 7.93857 11.2268
1 -8.25 1.58771 -11.2268
2 -5.5 -6.35085 11.2268
1 2.75 -7.93857 -11.2268
2 12.375 5.557 -2.24537
1 1.375 13.4956 2.24537
2 -11 7.93857 -2.24537
2 -12.375 -5.557 2.24537
3 -1.375 -13.4956 -2.24537
1 11 -7.93857 2.24537
2 2.75 0 13.4722
1 1.375 -2.38157 -13.4722
2 11 6.35085 -4.49073
1 -0 12.7017 4.49073
1 -11 6.35085 -4.49073
2 -11 -6.35085 4.49073
1 -0 -12.7017 -4.49073
3 11 -6.35085 4.49073
2 -0 0 13.4722
3 -0 0 -13.4722
1 9.625 7.14471 -6.7361
3 -1.375 11.9078 6.7361
2 -11 4.76314 -6.7361
2 -9.625 -7.14471 6.7361
3 1.375 -11.9078 -6.7361
1 11 -4.76314 6.7361
3 -2.75 0 13.4722
2 -1.375 2.38157 -13.4722
2 12.375 3.96928 2.24537
3 2.75 12.7017 -2.24537
1 -9.625 8.73242 2.24537
2 -12.375 -3.96928 -2.24537
3 -2.75 -12.7017 2.24537
3 9.625 -8.73242 -2.24537
3 11 3.17543 4.49073
3 2.75 11.114 -4.49073
1 -8.25 7.93857 4.49073
3 -11 -3.17543 -4.49073
1 -2.75 -11.114 4.49073
2 8.25 -7.93857 -4.49073
3 9.625 2.38157 6.7361
1 2.75 9.52628 -6.7361
2 -6.875 7.14471 6.7361
1 -9.625 -2.38157 -6.7361
3 -2.75 -9.52628 6.7361
2 6.875 -7.14471 -6.7361
1 8.25 1.58771 8.98146
1 2.75 7.93857 -8.98146
1 -5.5 6.35085 8.98146
2 -8.25 -1.58771 -8.98146
3 -2.75 -7.93857 8.98146
2 5.5 -6.35085 -8.98146
3 6.875 0.79386 11.2268
2 2.75 6.35085 -11.2268
3 -4.125 5.557 11.2268
2 -6.875 -0.79386 -11.2268
1 -2.75 -6.35085 11.2268
3 4.125 -5.557 -11.2268
2 11 7.93857 -2.24537
3 -1.375 13.4956 2.24537
1 -12.375 5.557 -2.24537
3 -11 -7.93857 2.24537
3 1.375 -13.4956 -2.24537
3 12.375 -5.557 2.24537
2 1.375 2.38157 13.4722
2 2.75 0 -13.4722
3 9.625 8.73242 -4.49073
3 -2.75 12.7017 4.49073
2 -12.375 3.96928 -4.49073
3 -9.625 -8.73242 4.49073
2 2.75 -12.7017 -4.49073
1 12.375 -3.96928 4.49073
1 -1.375 2.38157 13.4722
1 1.375 2.38157 -13.4722
2 11 6.35085 2.24537
2 -0 12.7017 -2.24537
1 -11 6.35085 2.24537
2 -11 -6.35085 -2.24537
1 -0 -12.7017 2.24537
1 11 -6.35085 -2.24537
2 9.625 5.557 4.49073
3 -0 11.114 -4.49073
3 -9.625 5.557 4.49073
2 -9.625 -5.557 -4.49073
2 -0 -11.114 4.49073
3 9.625 -5.557 -4.49073
3 8.25 4.76314 6.7361
3 -0 9.52628 -6.7361
3 -8.25 4.76314 6.7361
3 -8.25 -4.76314 -6.7361
1 -0 -9.52628 6.7361
3 8.25 -4.76314 -6.7361
2 6.875 3.96928 8.98146
2 -0 7.93857 -8.98146
2 -6.875 3.96928 8.98146
3 -6.875 -3.96928 -8.98146
3 -0 -7.93857 8.98146
3 6.875 -3.96928 -8.98146
3 5.5 3.17543 11.2268
3 -0 6.35085 -11.2268
1 -5.5 3.17543 11.2268
1 -5.5 -3.17543 -11.2268
2 -0 -6.35085 11.2268
1 5.5 -3.17543 -11.2268
1 9.625 10.3201 -2.24537
1 -4.125 13.4956 2.24537
2 -13.75 3.17543 -2.24537
1 -9.625 -10.3201 2.24537
2 4.125 -13.4956 -2.24537
2 13.75 -3.17543 2.24537
1 -0 4.76314 13.4722
2 4.125 2.38157 -13.4722
2 9.625 8.73242 2.24537
1 -2.75 12.7017 -2.24537
2 -12.375 3.96928 2.24537
1 -9.625 -8.73242 -2.24537
3 2.75 -12.7017 2.24537
2 12.375 -3.96928 -2.24537
2 8.25 7.93857 4.49073
3 -2.75 11.114 -4.49073
1 -11 3.17543 4.49073
1 -8.25 -7.93857 -4.49073
2 2.75 -11.114 4.49073
1 11 -3.17543 -4.49073
3 6.875 7.14471 6.7361
1 -2.75 9.52628 -6.7361
1 -9.625 2.38157 6.7361
1 -6.875 -7.14471 -6.7361
2 2.75 -9.52628 6.7361
2 9.625 -2.38157 -6.7361
1 5.5 6.35085 8.98146
3 -2.75 7.93857 -8.98146
2 -8.25 1.58771 8.98146
1 -5.5 -6.35085 -8.98146
1 2.75 -7.93857 8.98146
1 8.25 -1.58771 -8.98146
1 4.125 5.557 11.2268
3 -2.75 6.35085 -11.2268
2 -6.875 0.79386 11.2268
2 -4.125 -5.557 -11.2268
2 2.75 -6.35085 11.2268
1 6.875 -0.79386 -11.2268
1 8.25 11.114 2.24537
3 -5.5 12.7017 -2.24537
2 -13.75 1.58771 2.24537
1 -8.25 -11.114 -2.24537
3 5.5 -12.7017 2.24537
2 13.75 -1.58771 -2.24537
2 6.875 10.3201 4.49073
2 -5.5 11.114 -4.49073
2 -12.375 0.79386 4.49073
2 -6.875 -10.3201 -4.49073
1 5.5 -11.114 4.49073
3 12.375 -0.79386 -4.49073
2 5.5 9.52628 6.7361
2 -5.5 9.52628 -6.7361
2 -11 0 6.7361
3 -5.5 -9.52628 -6.7361
1 5.5 -9.52628 6.7361
2 11 0 -6.7361
2 4.125 8.73242 8.98146
2 -5.5 7.93857 -8.98146
2 -9.625 -0.79386 8.98146
2 -4.125 -8.73242 -8.98146
3 5.5 -7.93857 8.98146
2 9.625 0.79386 -8.98146
3 2.75 7.93857 11.2268
1 -5.5 6.35085 -11.2268
3 -8.25 -1.58771 11.2268
2 -2.75 -7.93857 -11.2268
2 5.5 -6.35085 11.2268
2 8.25 1.58771 -11.2268
3 19.25 0 0
3 9.625 16.671 0
3 -9.625 16.671 0
1 -19.25 0 0
3 -9.625 -16.671 0
2 9.625 -16.671 0
3 9.625 -5.557 15.7176
3 -0 11.114 15.7176
2 -9.625 -5.557 15.7176
2 -0 -11.114 -15.7176
2 9.625 5.557 -15.7176
3 -9.625 5.557 -15.7176
1 17.875 2.38157 0
2 17.875 -0.79386 2.24537
1 17.875 0.79386 -2.24537
2 6.875 16.671 0
1 8.25 15.8771 2.24537
1 9.625 15.0833 -2.24537
2 -11 14.2894 0
2 -8.25 15.8771 2.24537
2 -9.625 15.0833 -2.24537
1 -17.875 -2.38157 0
2 -17.875 -0.79386 2.24537
3 -17.875 0.79386 -2.24537
3 -6.875 -16.671 0
2 -9.625 -15.0833 2.24537
2 -8.25 -15.8771 -2.24537
2 11 -14.2894 0
3 9.625 -15.0833 2.24537
3 8.25 -15.8771 -2.24537
1 8.25 -3.17543 15.7176
2 6.875 -5.557 15.7176
2 -1.375 8.73242 15.7176
2 1.375 -8.73242 -15.7176
3 -1.375 -8.73242 -15.7176
2 6.875 5.557 -15.7176
2 16.5 4.76314 0
1 16.5 -1.58771 4.49073
2 16.5 1.58771 -4.49073
2 4.125 16.671 0
2 6.875 15.0833 4.49073
1 9.625 13.4956 -4.49073
1 -12.375 11.9078 0
1 -6.875 15.0833 4.49073
2 -9.625 13.4956 -4.49073
2 -16.5 -4.76314 0
3 -16.5 -1.58771 4.49073
1 -16.5 1.58771 -4.49073
1 -4.125 -16.671 0
2 -9.625 -13.4956 4.49073
3 -6.875 -15.0833 -4.49073
2 12.375 -11.9078 0
2 9.625 -13.4956 4.49073
3 6.875 -15.0833 -4.49073
3 6.875 -0.79386 15.7176
1 4.125 -5.557 15.7176
2 -2.75 6.35085 15.7176
2 2.75 -6.35085 -15.7176
1 -2.75 -6.35085 -15.7176
3 4.125 5.557 -15.7176
3 15.125 7.14471 0
3 15.125 -2.38157 6.7361
2 15.125 2.38157 -6.7361
3 1.375 16.671 0
3 5.5 14.2894 6.7361
3 9.625 11.9078 -6.7361
2 -13.75 9.52628 0
3 -5.5 14.2894 6.7361
1 -9.625 11.9078 -6.7361
3 -15.125 -7.14471 0
2 -15.125 -2.38157 6.7361
2 -15.125 2.38157 -6.7361
2 -1.375 -16.671 0
2 -9.625 -11.9078 6.7361
1 -5.5 -14.2894 -6.7361
3 13.75 -9.52628 0
2 9.625 -11.9078 6.7361
1 5.5 -14.2894 -6.7361
2 5.5 1.58771 15.7176
2 1.375 -5.557 15.7176
2 -4.125 3.96928 15.7176
2 4.125 -3.96928 -15.7176
1 -4.125 -3.96928 -15.7176
2 1.375 5.557 -15.7176
2 13.75 9.52628 0
3 13.75 -3.17543 8.98146
2 13.75 3.17543 -8.98146
3 -1.375 16.671 0
2 4.125 13.4956 8.98146
1 9.625 10.3201 -8.98146
3 -15.125 7.14471 0
1 -4.125 13.4956 8.98146
3 -9.625 10.3201 -8.98146
1 -13.75 -9.52628 0
3 -13.75 -3.17543 8.98146
2 -13.75 3.17543 -8.98146
2 1.375 -16.671 0
2 -9.625 -10.3201 8.98146
3 -4.125 -13.4956 -8.98146
2 15.125 -7.14471 0
3 9.625 -10.3201 8.98146
2 4.125 -13.4956 -8.98146
2 4.125 3.96928 15.7176
2 -1.375 -5.557 15.7176
3 -5.5 1.58771 15.7176
1 5.5 -1.58771 -15.7176
2 -5.5 -1.58771 -15.7176
3 -1.375 5.557 -15.7176
1 12.375 11.9078 0
3 12.375 -3.96928 11.2268
3 12.375 3.96928 -11.2268
3 -4.125 16.671 0
1 2.75 12.7017 11.2268
3 9.625 8.73242 -11.2268
3 -16.5 4.76314 0
1 -2.75 12.7017 11.2268
1 -9.625 8.73242 -11.2268
2 -12.375 -11.9078 0
1 -12.375 -3.96928 11.2268
1 -12.375 3.96928 -11.2268
3 4.125 -16.671 0
2 -9.625 -8.73242 11.2268
1 -2.75 -12.7017 -11.2268
1 16.5 -4.76314 0
1 9.625 -8.73242 11.2268
1 2.75 -12.7017 -11.2268
1 2.75 6.35085 15.7176
3 -4.125 -5.557 15.7176
2 -6.875 -0.79386 15.7176
2 6.875 0.79386 -15.7176
3 -6.875 0.79386 -15.7176
3 -4.125 5.557 -15.7176
1 11 14.2894 0
3 11 -4.76314 13.4722
2 11 4.76314 -13.4722
1 -6.875 16.671 0
1 1.375 11.9078 13.4722
1 9.625 7.14471 -13.4722
2 -17.875 2.38157 0
3 -1.375 11.9078 13.4722
3 -9.625 7.14471 -13.4722
3 -11 -14.2894 0
1 -11 -4.76314 13.4722
2 -11 4.76314 -13.4722
1 6.875 -16.671 0
1 -9.625 -7.14471 13.4722
3 -1.375 -11.9078 -13.4722
2 17.875 -2.38157 0
1 9.625 -7.14471 13.4722
2 1.375 -11.9078 -13.4722
2 1.375 8.73242 15.7176
3 -6.875 -5.557 15.7176
2 -8.25 -3.17543 15.7176
3 8.25 3.17543 -15.7176
3 -8.25 3.17543 -15.7176
2 -6.875 5.557 -15.7176
1 16.5 3.17543 -2.24537
1 5.5 15.8771 2.24537
3 -11 12.7017 -2.24537
2 -16.5 -3.17543 2.24537
3 -5.5 -15.8771 -2.24537
1 11 -12.7017 2.24537
2 5.5 -3.17543 15.7176
2 -0 -6.35085 -15.7176
2 15.125 3.96928 -4.49073
2 4.125 15.0833 4.49073
1 -11 11.114 -4.49073
3 -15.125 -3.96928 4.49073
2 -4.125 -15.0833 -4.49073
3 11 -11.114 4.49073
2 2.75 -3.17543 15.7176
2 -1.375 -3.96928 -15.7176
2 13.75 4.76314 -6.7361
2 2.75 14.2894 6.7361
1 -11 9.52628 -6.7361
2 -13.75 -4.76314 6.7361
2 -2.75 -14.2894 -6.7361
1 11 -9.52628 6.7361
1 -0 -3.17543 15.7176
2 -2.75 -1.58771 -15.7176
3 12.375 5.557 -8.98146
1 1.375 13.4956 8.98146
3 -11 7.93857 -8.98146
1 -12.375 -5.557 8.98146
2 -1.375 -13.4956 -8.98146
2 11 -7.93857 8.98146
2 -2.75 -3.17543 15.7176
1 -4.125 0.79386 -15.7176
1 11 6.35085 -11.2268
2 -0 12.7017 11.2268
2 -11 6.35085 -11.2268
2 -11 -6.35085 11.2268
1 -0 -12.7017 -11.2268
2 11 -6.35085 11.2268
1 -5.5 -3.17543 15.7176
1 -5.5 3.17543 -15.7176
2 16.5 1.58771 2.24537
2 6.875 15.0833 -2.24537
3 -9.625 13.4956 2.24537
2 -16.5 -1.58771 -2.24537
2 -6.875 -15.0833 2.24537
2 9.625 -13.4956 -2.24537
2 15.125 0.79386 4.49073
3 6.875 13.4956 -4.49073
2 -8.25 12.7017 4.49073
3 -15.125 -0.79386 -4.49073
3 -6.875 -13.4956 4.49073
3 8.25 -12.7017 -4.49073
1 13.75 0 6.7361
1 6.875 11.9078 -6.7361
1 -6.875 11.9078 6.7361
2 -13.75 0 -6.7361
3 -6.875 -11.9078 6.7361
1 6.875 -11.9078 -6.7361
2 12.375 -0.79386 8.98146
1 6.875 10.3201 -8.98146
2 -5.5 11.114 8.98146
2 -12.375 0.79386 -8.98146
3 -6.875 -10.3201 8.98146
1 5.5 -11.114 -8.98146
2 11 -1.58771 11.2268
2 6.875 8.73242 -11.2268
2 -4.125 10.3201 11.2268
3 -11 1.58771 -11.2268
1 -6.875 -8.73242 11.2268
1 4.125 -10.3201 -11.2268
3 9.625 -2.38157 13.4722
1 6.875 7.14471 -13.4722
2 -2.75 9.52628 13.4722
2 -9.625 2.38157 -13.4722
2 -6.875 -7.14471 13.4722
2 2.75 -9.52628 -13.4722
2 15.125 5.557 -2.24537
2 2.75 15.8771 2.24537
3 -12.375 10.3201 -2.24537
1 -15.125 -5.557 2.24537
3 -2.75 -15.8771 -2.24537
1 12.375 -10.3201 2.24537
3 4.125 -0.79386 15.7176
1 1.375 -3.96928 -15.7176
2 13.75 6.35085 -4.49073
3 1.375 15.0833 4.49073
2 -12.375 8.73242 -4.49073
1 -13.75 -6.35085 4.49073
2 -1.375 -15.0833 -4.49073
3 12.375 -8.73242 4.49073
1 1.375 -0.79386 15.7176
1 -0 -1.58771 -15.7176
3 12.375 7.14471 -6.7361
3 -0 14.2894 6.7361
1 -12.375 7.14471 -6.7361
3 -12.375 -7.14471 6.7361
2 -0 -14.2894 -6.7361
3 12.375 -7.14471 6.7361
1 -1.375 -0.79386 15.7176
1 -1.375 0.79386 -15.7176
2 11 7.93857 -8.98146
2 -1.375 13.4956 8.98146
1 -12.375 5.557 -8.98146
3 -11 -7.93857 8.98146
1 1.375 -13.4956 -8.98146
2 12.375 -5.557 8.98146
3 -4.125 -0.79386 15.7176
2 -2.75 3.17543 -15.7176
2 15.125 3.96928 2.24537
2 4.125 15.0833 -2.24537
2 -11 11.114 2.24537
1 -15.125 -3.96928 -2.24537
2 -4.125 -15.0833 2.24537
2 11 -11.114 -2.24537
3 13.75 3.17543 4.49073
2 4.125 13.4956 -4.49073
1 -9.625 10.3201 4.49073
1 -13.75 -3.17543 -4.49073
2 -4.125 -13.4956 4.49073
1 9.625 -10.3201 -4.49073
2 12.375 2.38157 6.7361
3 4.125 11.9078 -6.7361
3 -8.25 9.52628 6.7361
1 -12.375 -2.38157 -6.7361
1 -4.125 -11.9078 6.7361
1 8.25 -9.52628 -6.7361
3 11 1.58771 8.98146
3 4.125 10.3201 -8.98146
3 -6.875 8.73242 8.98146
1 -11 -1.58771 -8.98146
2 -4.125 -10.3201 8.98146
3 6.875 -8.73242 -8.98146
1 9.625 0.79386 11.2268
1 4.125 8.73242 -11.2268
1 -5.5 7.93857 11.2268
2 -9.625 -0.79386 -11.2268
1 -4.125 -8.73242 11.2268
2 5.5 -7.93857 -11.2268
2 8.25 0 13.4722
2 4.125 7.14471 -13.4722
3 -4.125 7.14471 13.4722
1 -8.25 0 -13.4722
2 -4.125 -7.14471 13.4722
2 4.125 -7.14471 -13.4722
1 13.75 7.93857 -2.24537
3 -0 15.8771 2.24537
2 -13.75 7.93857 -2.24537
2 -13.75 -7.93857 2.24537
1 -0 -15.8771 -2.24537
1 13.75 -7.93857 2.24537
2 2.75 1.58771 15.7176
2 2.75 -1.58771 -15.7176
3 12.375 8.73242 -4.49073
2 -1.375 15.0833 4.49073
2 -13.75 6.35085 -4.49073
2 -12.375 -8.73242 4.49073
2 1.375 -15.0833 -4.49073
2 13.75 -6.35085 4.49073
1 -0 1.58771 15.7176
1 1.375 0.79386 -15.7176
3 11 9.52628 -6.7361
3 -2.75 14.2894 6.7361
2 -13.75 4.76314 -6.7361
2 -11 -9.52628 6.7361
1 2.75 -14.2894 -6.7361
3 13.75 -4.76314 6.7361
1 -2.75 1.58771 15.7176
2 -0 3.17543 -15.7176
3 13.75 6.35085 2.24537
2 1.375 15.0833 -2.24537
2 -12.375 8.73242 2.24537
2 -13.75 -6.35085 -2.24537
2 -1.375 -15.0833 2.24537
2 12.375 -8.73242 -2.24537
3 12.375 5.557 4.49073
1 1.375 13.4956 -4.49073
2 -11 7.93857 4.49073
1 -12.375 -5.557 -4.49073
2 -1.375 -13.4956 4.49073
3 11 -7.93857 -4.49073
2 11 4.76314 6.7361
2 1.375 11.9078 -6.7361
2 -9.625 7.14471 6.7361
1 -11 -4.76314 -6.7361
1 -1.375 -11.9078 6.7361
3 9.625 -7.14471 -6.7361
3 9.625 3.96928 8.98146
1 1.375 10.3201 -8.98146
1 -8.25 6.35085 8.98146
2 -9.625 -3.96928 -8.98146
3 -1.375 -10.3201 8.98146
2 8.25 -6.35085 -8.98146
3 8.25 3.17543 11.2268
2 1.375 8.73242 -11.2268
2 -6.875 5.557 11.2268
2 -8.25 -3.17543 -11.2268
2 -1.375 -8.73242 11.2268
2 6.875 -5.557 -11.2268
1 6.875 2.38157 13.4722
2 1.375 7.14471 -13.4722
3 -5.5 4.76314 13.4722
3 -6.875 -2.38157 -13.4722
3 -1.375 -7.14471 13.4722
3 5.5 -4.76314 -13.4722
2 12.375 10.3201 -2.24537
1 -2.75 15.8771 2.24537
3 -15.125 5.557 -2.24537