7803
 Atoms. Timestep: 100
3 -0.0143326 -0.0218733 -0.0451842
1 2.65768 -0.0316898 -0.00643683
3 1.40215 2.34225 0.0312007
3 -1.45528 2.39713 -0.0499411
3 -2.67583 0.0543874 -0.0358091
2 -1.3402 -2.28748 -0.1155
3 1.37783 -2.38548 -0.0760374
3 1.3334 -0.785081 2.30406
1 0.0491205 1.55329 2.14278
2 -1.33713 -0.777676 2.1005
1 -0.0103347 -1.56019 -2.32943
2 1.26173 0.864954 -2.14424
3 -1.42363 0.847526 -2.33547
1 5.43037 -0.0148388 0.0218066
2 2.73314 4.59173 0.0592825
3 -2.81262 4.58991 -0.0195528
3 -5.3873 -0.0173522 -0.0632524
1 -2.58907 -4.80453 -0.0536189
1 2.70318 -4.74228 0.0633879
3 2.61721 -1.46142 4.4935
1 0.0219568 3.118 4.49145
1 -2.68847 -1.57507 4.52614
3 0.0110658 -3.18616 -4.50088
1 2.78406 1.60553 -4.44765
2 -2.69305 1.52337 -4.42707
3 4.03172 2.30655 -0.0135196
3 4.04025 -0.749754 2.22524
2 4.11019 0.835412 -2.20322
1 -0.0467174 4.73504 -0.086305
1 1.36901 3.94222 2.20494
1 2.73607 3.17653 -2.22882
2 -4.0927 2.26926 -0.0931411
1 -1.40482 3.88378 2.15462
2 -2.74331 3.16162 -2.22469
3 -4.08517 -2.42892 -0.0480414
2 -4.01124 -0.841981 2.09668
3 -4.08932 0.77656 -2.28258
2 0.0748535 -4.72361 -0.00481351
1 -2.6139 -3.14504 2.18078
3 -1.27227 -3.95409 -2.14506
1 4.02481 -2.3262 0.0840641
3 2.7527 -3.12299 2.24093
3 1.37079 -3.96272 -2.23435
2 1.36345 0.8176 4.42928
2 0.0179501 -1.44839 4.47774
2 -1.31175 0.830644 4.41139
1 1.42687 -0.825701 -4.48595
1 -1.33255 -0.816285 -4.50945
1 0.0825867 1.5933 -4.47981
2 2.75685 1.51753 2.07928
3 -0.036168 3.1177 -2.26907
2 -2.63935 1.5898 2.12378
1 -2.76073 -1.58908 -2.22498
1 0.105539 -3.07726 2.23304
2 2.78309 -1.67484 -2.18563
3 8.07187 0.042911 -0.0683615
2 3.98479 6.94581 -0.032089
2 -4.06624 6.87054 -0.037519
1 -8.13045 -0.0470074 -0.0350971
2 -3.9184 -6.97868 -0.0713943
2 4.04135 -7.02308 -0.118905
2 4.02009 -2.3232 6.62524
1 0.054961 4.75986 6.66534
3 -4.09618 -2.26102 6.70366
3 -0.0365208 -4.69133 -6.64468
1 4.10933 2.3462 -6.61654
2 -4.04139 2.37084 -6.59936
2 6.72021 2.28606 0.128942
3 6.68958 -0.703511 2.19176
1 6.81909 0.723806 -2.20169
2 1.34974 6.9558 0.0165363
3 2.61706 6.21579 2.1018
1 4.17579 5.47999 -2.2219
2 -5.50775 4.61415 -0.0973414
1 -2.73091 6.25547 2.21919
1 -4.07414 5.44315 -2.30949
1 -6.74174 -2.31694 -0.0180479
2 -6.73395 -0.74751 2.16566
3 -6.68636 0.724581 -2.22598
2 -1.32198 -7.10201 -0.10578
2 -4.03519 -5.56493 2.29924
3 -2.63527 -6.25898 -2.25154
1 5.41888 -4.71633 -0.0152355
2 4.03472 -5.50563 2.21377
2 2.66929 -6.23102 -2.2382
1 2.69837 -0.0602238 6.73683
2 1.36671 -2.24712 6.60924
1 -1.32935 2.32248 6.63662
2 1.34672 -2.44478 -6.69852
2 -1.24964 -2.36123 -6.72488
2 1.43896 2.43914 -6.61547
2 5.43508 4.65459 0.0789976
2 5.38831 -1.51923 4.32432
2 5.39983 1.52181 -4.48859
1 -1.45556 7.02628 -0.0112924
3 1.37551 5.54031 4.47229
3 4.16108 3.88516 -4.42595
3 -6.65889 2.34053 -0.0227497
3 -1.24385 5.52171 4.4595
1 -4.04149 3.93529 -4.48504
2 -5.42993 -4.63466 0.0450509
2 -5.40643 -1.45773 4.40717
2 -5.40626 1.53119 -4.41172
3 1.32498 -7.04839 -0.0306111
2 -4.01577 -3.80785 4.5529
3 -1.27345 -5.49252 -4.32083
1 6.82366 -2.31022 0.0114163
1 4.13447 -3.84514 4.49926
2 1.33997 -5.42187 -4.47416
1 1.39213 2.30549 6.62333
3 -1.24383 -2.28157 6.61297
2 -2.63431 -0.0193116 6.67376
1 2.76252 -0.020236 -6.68968
2 -2.60974 0.0155862 -6.65754
2 -1.24498 2.41447 -6.68141
2 5.4585 3.0982 -2.2576
2 0.00701881 6.22669 2.32928
3 -5.38543 3.05337 -2.26981
1 -5.37984 -3.19166 2.25774
2 0.0367666 -6.20905 -2.21161
2 5.45141 -3.03638 2.1535
3 -0.0120632 -0.0479906 6.7072
2 0.0354552 0.0788918 -6.7204
3 5.46153 1.52143 2.18875
1 1.35286 5.5286 -2.29234
2 -4.06617 3.91402 2.22336
3 -5.42574 -1.53271 -2.25245
2 -1.2659 -5.47366 2.24501
1 4.10026 -3.95004 -2.27146
2 4.11225 0.821731 4.35571
3 1.39255 3.95008 -4.46459
3 -2.65183 3.13737 4.43304
2 -4.05233 -0.855596 -4.40397
1 -1.31607 -3.94469 4.48861
2 2.77552 -3.14885 -4.38427
1 4.0804 3.91705 2.19161
1 -1.40356 5.42677 -2.35068
1 -5.45018 1.55449 2.15946
2 -3.93305 -3.88592 -2.20201
3 1.3525 -5.43634 2.23296
2 5.50775 -1.60164 -2.13773
2 2.75481 3.2371 4.48002
3 -1.36242 3.90787 -4.44584
1 -3.99699 0.796484 4.46708
2 -2.58338 -3.30823 -4.38905
2 1.48259 -3.87338 4.47831
2 4.12339 -0.746142 -4.4756
2 10.6958 -0.00783246 0.0121672
2 5.35472 9.14846 0.0164855
2 -5.4295 9.30298 -0.00514506
2 -10.7243 -0.0534386 0.0328087
2 -5.32944 -9.2322 -0.0885819
3 5.3342 -9.33622 0.00258685
3 5.28475 -3.06311 8.77249
2 0.125498 6.32186 8.7041
3 -5.33791 -3.06179 8.8254
1 0.0791688 -6.20227 -8.75721
2 5.31054 3.12131 -8.75284
2 -5.29264 3.16504 -8.79294
2 9.38562 2.25431 0.0544118
3 9.31838 -0.727137 2.14071
2 9.39797 0.722896 -2.23347
2 2.7128 9.29336 0.0656463
3 4.04463 8.49715 2.1602
3 5.42302 7.70776 -2.17467
2 -6.81561 7.03052 -0.0101699
2 -4.04409 8.5829 2.26731
2 -5.43741 7.71762 -2.23366
2 -9.38459 -2.34451 0.114911
2 -9.51785 -0.816869 2.30125
2 -9.40184 0.747334 -2.17672
1 -2.6806 -9.35226 0.0253083
1 -5.37486 -7.83029 2.27289
3 -4.02379 -8.51057 -2.15581
1 6.71406 -7.05486 -0.0226544
2 5.44071 -7.75314 2.1898
2 4.17817 -8.55557 -2.23185
2 4.04772 -0.765855 8.86379
2 2.59328 -3.11806 8.85572
2 -1.30394 3.83606 8.6775
3 1.39313 -3.84767 -8.90035
1 -1.26199 -3.94921 -8.86977
3 2.73103 3.09083 -8.72608
2 8.13171 4.62244 -0.00941752
3 7.97512 -1.55091 4.37208
3 7.98557 1.5089 -4.39356
2 -0.0375845 9.27487 0.0924151
2 2.79724 7.70261 4.41214
2 5.45228 6.16655 -4.44146
3 -8.08236 4.57927 -0.0374889
2 -2.63177 7.7782 4.44754
1 -5.42767 6.30991 -4.50174
3 -8.06801 -4.55496 0.0233407
3 -8.07844 -1.48287 4.36266
2 -7.99905 1.54335 -4.36494
2 0.0992321 -9.35874 0.0201218
2 -5.31039 -6.24346 4.51744
3 -2.7798 -7.7192 -4.28755
2 8.02558 -4.59636 0.101599
2 5.41676 -6.26227 4.33818
1 2.70245 -7.74618 -4.33817
1 2.62621 1.49824 8.83629
1 -0.011526 -3.11495 8.80676
2 -2.68476 1.55413 8.74041
2 2.68349 -1.56446 -8.79299
1 -2.69697 -1.54153 -8.87891
1 0.0696208 3.07886 -8.78773
1 6.72062 6.92696 -0.0405601
2 6.66092 -2.37186 6.54793
3 6.67289 2.32048 -6.65127
2 -2.79125 9.327 0.00311299
3 1.45741 7.07348 6.5291
3 5.47061 4.62704 -6.63881
1 -9.43942 2.25866 -0.0471119
1 -1.22841 7.14595 6.59227
3 -5.37729 4.63201 -6.60813
1 -6.72736 -6.97359 -0.0197369
2 -6.76767 -2.33244 6.65913
2 -6.6932 2.39908 -6.59822
2 2.6738 -9.31881 -0.0272593
1 -5.54022 -4.58359 6.66408
3 -1.21303 -7.07904 -6.5169
1 9.46225 -2.28502 -0.0425366
2 5.30196 -4.60805 6.72057
1 1.32192 -7.0265 -6.60248
2 1.33884 3.94962 8.75123
1 -2.6795 -3.0273 8.83535
3 -4.07275 -0.741119 8.79584
1 4.08101 0.702043 -8.85891
2 -3.92606 0.723935 -8.83899
1 -2.68011 3.13681 -8.69505
1 8.08104 3.07053 -2.20507
2 1.34251 8.52794 2.27243
1 -6.77056 5.43155 -2.22426
2 -8.13189 -3.08152 2.28406
1 -1.36532 -8.55451 -2.2492
3 6.71333 -5.38884 2.23897
3 1.2996 -0.787695 8.82416
3 0.0904975 -1.52318 -8.83184
3 6.73701 3.79966 -4.43838
3 0.0874083 7.79066 4.42998
2 -6.72034 3.94909 -4.4065
1 -6.82509 -3.81645 4.39338
2 -0.083341 -7.74309 -4.37716
2 6.69076 -3.89329 4.38547
2 -1.34264 -0.792087 8.78874
3 -1.28274 0.825024 -8.8186
3 8.06338 1.61326 2.20896
1 2.74374 7.82992 -2.20928
1 -5.43608 6.21073 2.21661
2 -8.1097 -1.56049 -2.16962
2 -2.61404 -7.8944 2.18161
3 5.29891 -6.17976 -2.29378
2 6.73869 0.826713 4.27653
3 2.7423 6.27652 -4.36823
1 -4.03266 5.55106 4.5111
2 -6.75055 -0.735477 -4.36112
1 -2.64831 -6.36325 4.45474
2 4.11815 -5.52889 -4.50988
2 5.40302 0.0870771 6.53079
2 2.91608 4.6828 -6.48411
2 -2.57472 4.63795 6.58453
1 -5.37041 -0.0104543 -6.65432
1 -2.61487 -4.66634 6.67147
1 2.66836 -4.69279 -6.70107
2 6.80238 5.46491 -2.30975
2 -1.30153 8.5962 2.28352
2 -8.04441 3.04469 -2.14616
1 -6.79545 -5.43714 2.24964
1 1.40215 -8.55254 -2.15723
1 8.07228 -3.03295 2.21778
3 -0.0524775 1.453 8.77468
2 1.37432 0.841737 -8.88746
1 6.79267 3.8835 2.33346
2 -0.0395397 7.69758 -2.14774
2 -6.78577 3.87121 2.23278
1 -6.71278 -3.91191 -2.21301
2 0.0548767 -7.76973 2.08622
1 6.79957 -3.96496 -2.2505
3 5.35647 3.16902 4.51981
3 0.0669964 6.26427 -4.4123
2 -5.32377 3.04477 4.41
1 -5.42076 -3.14922 -4.4251
2 0.0869472 -6.22192 4.40827
1 5.48958 -3.21377 -4.49647
2 4.00157 2.33782 6.66954
1 0.0646339 4.70284 -6.60583
1 -4.02203 2.40188 6.68611
2 -4.06479 -2.50661 -6.6084
2 0.0384347 -4.65087 6.6676
2 4.10686 -2.27778 -6.6179
2 5.26883 6.15571 2.3354
3 -2.67576 7.84744 -2.23594
1 -8.14712 1.5484 2.23862
2 -5.31576 -6.22033 -2.20413
2 2.68736 -7.73136 2.1759
3 8.05274 -1.57831 -2.28123
3 4.15062 5.4628 4.45355
2 -2.63323 6.28373 -4.4179
2 -6.7563 0.77029 4.46978
3 -3.99978 -5.50984 -4.37007
2 2.70339 -6.19898 4.48009
2 6.76945 -0.811387 -4.41987
1 2.7508 4.79344 6.64154
3 -2.63931 4.70819 -6.62397
1 -5.33257 -0.0304631 6.6373
1 -2.58919 -4.78276 -6.54767
3 2.66108 -4.65836 6.66354
3 5.3552 0.0418725 -6.65886
3 13.4043 0.049642 0.0772451
2 6.73678 11.547 -0.053767
2 -6.68084 11.6315 -0.078797
2 -13.2905 0.00671601 0.0714342
1 -6.65259 -11.5532 0.0141724
2 6.66504 -11.5895 0.0532871
1 6.63073 -4.00039 10.9355
1 -0.00468151 7.75156 10.9097
3 -6.7232 -3.76867 10.93
1 0.0607359 -7.77383 -10.9254
3 6.74634 3.89389 -10.9124
2 -6.63298 3.92018 -10.9874
3 12.0177 2.30747 -0.0117496
3 11.9229 -0.821296 2.09122
1 11.9532 0.781691 -2.09799
2 4.07961 11.664 0.0594633
3 5.31583 10.759 2.19695
2 6.77294 10.0227 -2.23597
2 -8.15372 9.35987 -0.00942675
2 -5.29568 10.9024 2.20913
3 -6.70121 10.0262 -2.22587
2 -12.0302 -2.4027 0.0794942
2 -12.0389 -0.804544 2.28103
3 -12.0122 0.775311 -2.15118
2 -4.08747 -11.703 0.0663291
2 -6.65218 -10.1795 2.15125
2 -5.31925 -10.7761 -2.25484
3 8.00771 -9.29658 0.0231076
1 6.65321 -10.0591 2.22801
1 5.34732 -10.9258 -2.14602
2 5.35027 -1.58172 10.9231
3 3.98535 -3.8614 10.9566
2 -1.31845 5.52247 10.893
3 1.33486 -5.37935 -11.0162
2 -1.24277 -5.40817 -10.9183
2 4.07802 3.78725 -10.9483
3 10.7373 4.54482 -0.0246188
1 10.5893 -1.52535 4.30152
1 10.6617 1.53348 -4.35738
2 1.29927 11.638 0.124015
3 3.96749 9.98591 4.37498
1 6.86756 8.41133 -4.44035
1 -9.37205 6.95275 -0.0206091
2 -3.89556 10.0631 4.40486
2 -6.71962 8.43711 -4.36353
3 -10.7661 -4.60678 -0.0327116
3 -10.757 -1.5861 4.38246
2 -10.693 1.54056 -4.30956
2 -1.32339 -11.5878 0.0440507
2 -6.69675 -8.52632 4.42904
3 -3.9475 -10.1252 -4.44514
2 9.24035 -7.02454 -0.046795
3 6.66235 -8.47893 4.44619
3 4.03385 -10.0086 -4.40571
3 3.97821 0.798002 10.9785
1 1.33665 -3.89449 11.0188
2 -2.73649 3.07015 10.9263
3 2.71705 -3.0692 -10.9549
2 -2.62742 -3.03608 -10.885
3 1.44096 3.89328 -10.9676
1 9.4417 6.87708 -0.0144232
3 9.32933 -2.28092 6.46634
2 9.24165 2.28209 -6.59908
2 -1.38751 11.6565 0.0578006
2 2.74946 9.30671 6.55675
1 6.72115 6.84998 -6.6297
1 -10.668 4.57108 -0.0788316
3 -2.61771 9.31472 6.71676
3 -6.74345 7.03203 -6.66774
2 -9.38661 -6.8278 0.00537716
1 -9.44062 -2.31449 6.6443
2 -9.38373 2.23843 -6.48651
1 1.38411 -11.6146 0.0322804
1 -6.81655 -6.97876 6.66326
1 -2.57779 -9.21325 -6.4932
3 10.6945 -4.55037 -0.0220563
2 6.68294 -6.97268 6.62052
1 2.72921 -9.27491 -6.61095
3 2.73523 2.99281 10.9314
3 -1.33727 -3.85669 11.0289
3 -4.0755 0.850102 10.8569
2 3.97317 -0.770277 -10.8972
3 -3.9854 -0.762945 -10.9427
1 -1.20394 3.87857 -11.0059
2 8.0716 9.15553 0.00194299
1 7.96826 -3.09584 8.71977
2 8.00482 3.11373 -8.80963
3 -3.99768 11.5723 0.0590583
2 1.38902 8.54818 8.70323
3 6.68085 5.38872 -8.73412
3 -12.0333 2.25931 0.0246219
2 -1.36983 8.61889 8.82127
2 -6.64719 5.54782 -8.70206
2 -8.05496 -9.29421 -0.0433246
3 -8.06402 -3.08767 8.78397
2 -7.98485 3.11797 -8.77138
3 3.93559 -11.5791 -0.0614347
2 -6.76172 -5.30513 8.80674
3 -1.29886 -8.50975 -8.77864
2 12.0217 -2.2554 -0.0749147
2 6.58401 -5.39023 8.90047
3 1.40694 -8.54009 -8.75571
1 1.34838 5.41701 10.937
2 -4.02762 -3.85719 11.004
2 -5.29036 -1.55267 10.9668
3 5.38527 1.5518 -10.9698
3 -5.29691 1.55754 -10.8867
1 -3.95744 3.84161 -10.9358
2 10.661 3.16184 -2.17429
2 2.74197 10.8061 2.23565
1 -8.08389 7.72846 -2.23146
3 -10.7715 -3.06348 2.27501
2 -2.77521 -10.793 -2.2476
1 8.08418 -7.81351 2.21708
2 2.66523 -1.51969 10.9243
1 0.117002 -3.09045 -11.0607
3 9.28809 3.81656 -4.39652
2 1.37312 10.0531 4.39218
3 -8.13857 6.20194 -4.38961
1 -9.48997 -3.83069 4.43774
2 -1.37884 -10.0849 -4.40357
2 7.96306 -6.20833 4.36031
1 -0.0783351 -1.53226 10.9827
2 -1.32812 -0.694036 -10.9364
3 8.01245 4.56807 -6.64555
3 0.0556923 9.29229 6.5058
2 -7.97256 4.68444 -6.48209
3 -8.1634 -4.54555 6.57528
3 0.0358158 -9.27508 -6.45138
1 7.99375 -4.66305 6.50492
3 -2.72244 -1.48721 10.9
2 -2.67092 1.57131 -10.9176
3 10.7257 1.44281 2.17728
1 4.10608 10.0976 -2.24985
1 -6.72151 8.55702 2.17989
1 -10.7337 -1.57492 -2.14784
2 -3.97574 -10.145 2.19787
1 6.72527 -8.49823 -2.26218
1 9.28136 0.770283 4.37159
1 4.17998 8.56306 -4.44372
1 -5.37862 7.82212 4.45017
2 -9.43426 -0.822829 -4.40321
3 -3.97577 -8.56964 4.36726
3 5.42664 -7.8313 -4.39332
1 8.03986 -0.0586501 6.56361
3 4.02259 6.99783 -6.65479
1 -4.0173 7.10438 6.66322
2 -7.99561 -0.0321461 -6.60157
1 -4.05449 -7.0123 6.65132
1 4.10221 -6.93025 -6.60542
2 6.68571 -0.796749 8.76109
2 4.10208 5.40038 -8.78731
1 -2.60989 6.24478 8.75858
2 -6.63768 0.794777 -8.77489
1 -4.03165 -5.4316 8.82431
3 2.67657 -6.18938 -8.84677
1 9.45943 5.36786 -2.19302
3 0.0678561 10.8042 2.22432
2 -9.41954 5.28777 -2.19772
1 -9.45081 -5.40756 2.22682
1 0.0270698 -10.8549 -2.19994
2 9.39643 -5.36335 2.14876
2 1.31376 0.787874 10.8962
1 1.3836 -0.808383 -11.0017
3 8.12277 6.12827 -4.49227
2 -1.17091 10.039 4.39262
3 -9.30577 3.81937 -4.40443
1 -8.08372 -6.15084 4.47036
2 1.4527 -9.96762 -4.44745
2 9.37403 -3.81232 4.35755
3 -1.30354 0.890125 10.8201
1 0.0943941 1.52717 -10.9237
2 9.42825 3.76243 2.22796
1 1.26679 10.0869 -2.18374
1 -8.06896 6.17049 2.19196
2 -9.38998 -3.98605 -2.18119
3 -1.22836 -10.0785 2.18747
2 8.04896 -6.22552 -2.19842
3 8.12029 3.10296 4.40426
2 1.42756 8.45006 -4.33549
2 -6.7005 5.46241 4.44413
2 -8.02594 -3.07288 -4.39116
2 -1.23048 -8.58686 4.29324
1 6.74714 -5.53247 -4.41284
2 6.68791 2.36412 6.51232
2 1.42165 6.98815 -6.51288
2 -5.35186 4.67908 6.61381
2 -6.74288 -2.41176 -6.58543
2 -1.31379 -7.01244 6.68599
2 5.41741 -4.57776 -6.71525
1 5.30134 1.50539 8.77472
2 1.43053 5.37543 -8.71231
3 -3.95912 3.91039 8.71903
2 -5.38132 -1.65105 -8.84761
1 -1.29407 -5.50266 8.90574
2 3.97845 -3.91143 -8.83811
3 8.13113 7.74161 -2.23106
3 -2.657 10.8076 2.21884
3 -10.7561 3.01334 -2.18915
2 -8.10947 -7.7448 2.23436
2 2.67432 -10.8284 -2.23884
3 10.6921 -3.03649 2.1014
2 -0.022273 3.06309 10.9986
3 2.80546 1.56273 -10.9699
1 8.07494 6.14466 2.24571
2 -1.38324 10.027 -2.11685
2 -9.4685 3.89823 2.10617
1 -8.05943 -6.21243 -2.2193
1 1.38163 -10.0917 2.23402
2 9.35371 -3.84353 -2.21753
2 6.68002 5.43391 4.41721
2 -1.31624 8.41429 -4.38246
1 -8.04895 3.12863 4.51194
1 -6.66775 -5.57798 -4.4195
2 1.39041 -8.52974 4.44334
2 8.0521 -3.11706 -4.57275
2 5.33451 4.70945 6.56758
3 -1.3638 6.98547 -6.54257
2 -6.60285 2.27839 6.72052
1 -5.3527 -4.81186 -6.6482
2 1.41831 -6.90343 6.66993
3 6.74685 -2.37875 -6.70105
1 3.97605 3.88546 8.77821
1 -1.25791 5.53899 -8.80553
3 -5.32962 1.61458 8.8079
1 -4.03462 -3.95974 -8.75229
2 1.33492 -5.45459 8.8695
3 5.35717 -1.51396 -8.74204
2 6.62801 8.50344 2.24217
2 -4.11079 10.1167 -2.13645
3 -10.7326 1.50548 2.18101
3 -6.65781 -8.52385 -2.19529
2 3.96195 -10.0878 2.09103
3 10.705 -1.55441 -2.23282
3 5.34903 7.74954 4.41608
1 -3.96824 8.60499 -4.42547
1 -9.45065 0.770964 4.43862
2 -5.29221 -7.87678 -4.29311
2 4.02502 -8.52315 4.34815
2 9.36299 -0.757223 -4.32912
3 4.04022 6.98475 6.58887
1 -3.92522 7.02734 -6.65756
1 -8.03918 -0.0480368 6.699
2 -3.93083 -7.05935 -6.48718
2 4.05192 -6.90389 6.68853
2 7.91752 -0.0172969 -6.64018
3 2.72181 6.26447 8.71332
1 -3.95291 5.52502 -8.78209
2 -6.65833 -0.78633 8.7036
2 -2.60644 -6.25343 -8.628
3 3.9038 -5.37878 8.84846
3 6.74359 0.778635 -8.7987
2 16.0368 0.0553784 0.0219435
2 8.16747 13.7362 -0.0203269
3 -7.99627 13.879 -0.107129
1 -16.0676 -0.0320197 0.01959
1 -7.9522 -13.9003 0.0472526
2 8.0348 -13.9694 0.0419172
3 8.05669 -4.7398 13.1574
2 -0.044454 9.47502 13.098
1 -8.13858 -4.59236 13.0928
1 0.102597 -9.33078 -13.1436
3 8.08031 4.74818 -13.1104
2 -8.05335 4.61359 -13.2896
3 14.6591 2.28707 0.014285
3 14.708 -0.813229 2.14319
1 14.7074 0.75673 -2.09632
2 5.38339 13.8955 -0.12665
2 6.68167 13.0577 2.1546
3 8.0461 12.2932 -2.176
3 -9.32429 11.6838 -0.00881606
1 -6.66551 13.2194 2.20364
2 -8.10673 12.3614 -2.21721
1 -14.6682 -2.33254 0.0648245
2 -14.7101 -0.792406 2.27083
2 -14.7031 0.641095 -2.09833
3 -5.36289 -13.9366 -0.0373459
3 -7.89674 -12.4606 2.22938
3 -6.659 -13.1401 -2.24142
3 9.261 -11.6397 0.0381827
2 7.98649 -12.334 2.27174
2 6.72066 -13.2128 -2.23298
1 6.82275 -2.38546 13.102
3 5.31734 -4.7264 13.1238
1 -1.40347 7.07077 13.0607
2 1.37885 -6.95455 -13.1565
2 -1.29018 -6.8947 -13.1983
2 5.41826 4.6846 -13.1593
2 13.3447 4.56145 -0.105206
1 13.3456 -1.54274 4.27903
2 13.374 1.51776 -4.41264
1 2.62608 13.87 -0.0457834
3 5.33683 12.288 4.25674
1 8.12111 10.788 -4.41106
1 -10.7889 9.32217 0.0801322
1 -5.34458 12.3376 4.41201
1 -8.02385 10.8005 -4.40944
3 -13.3341 -4.68816 -0.0572446
3 -13.2911 -1.44336 4.38249
2 -13.3298 1.51983 -4.3289
1 -2.63375 -13.8942 0.0401206
2 -8.06193 -10.9598 4.35475
1 -5.17875 -12.3632 -4.44706
2 10.5766 -9.30572 -0.0106646
3 7.98903 -10.8208 4.39668
2 5.3656 -12.3981 -4.4104
1 5.38567 0.0228102 13.053
2 2.76772 -4.70128 13.223
2 -2.61298 4.65127 13.1372
2 2.71048 -4.59461 -13.0707
1 -2.669 -4.63436 -13.1061
2 2.71106 4.6711 -13.1407
2 11.9783 6.89629 -0.00483697
3 12.0614 -2.3138 6.53504
2 11.9534 2.2996 -6.53984
3 -0.0682781 13.8644 -0.0527445
2 4.0221 11.6024 6.48789
2 8.11842 9.27773 -6.55089
2 -11.9498 6.92146 0.151854
2 -3.97107 11.6147 6.59513
2 -8.03851 9.27127 -6.59324
2 -12.0158 -6.88511 -0.000400197
3 -12.0647 -2.1649 6.67578
1 -12.0262 2.30772 -6.49218
3 -0.0134807 -13.9076 -0.0186079
1 -8.09046 -9.31567 6.569
2 -3.97354 -11.6189 -6.59729
2 11.9187 -6.9536 -0.0741652
3 7.9308 -9.21444 6.58881
2 3.98273 -11.5769 -6.51632
2 4.04496 2.33102 13.1034
1 -0.0386583 -4.78075 13.2083
3 -4.05287 2.33884 13.0842
3 4.03617 -2.28254 -13.0857
2 -3.96203 -2.36866 -13.1937
3 0.163002 4.73176 -13.1031
1 10.745 9.17777 -0.0222037
1 10.6755 -3.07526 8.65539
1 10.5765 3.08325 -8.73878
3 -2.6585 13.9625 -0.0182459
3 2.68662 10.9119 8.63965
2 8.03507 7.65518 -8.68598
1 -13.3798 4.6059 0.0795455
3 -2.61659 10.8288 8.71844
3 -8.02861 7.78132 -8.69585
2 -10.7535 -9.27675 0.0255368
2 -10.7136 -2.99977 8.85755
1 -10.6394 2.98432 -8.77551
3 2.61445 -13.8928 0.018496
1 -8.09449 -7.68648 8.82604
1 -2.6563 -10.7864 -8.72204
1 13.2887 -4.53465 0.0236539
3 7.96824 -7.72167 8.74701
3 2.70147 -10.8547 -8.7704
3 2.70327 4.68592 13.0969
1 -2.69999 -4.57501 13.2721
2 -5.30824 -0.00967768 13.0683
2 5.265 0.0369152 -13.0765
1 -5.2865 -0.0560476 -13.1589
3 -2.62339 4.68031 -13.1641
3 9.32738 11.4815 0.00397048
1 9.31934 -3.92385 10.9513
3 9.3221 3.83653 -10.9754
3 -5.30592 13.8792 0.0903571
1 1.29546 10.1784 10.8533
2 8.05549 6.17626 -10.9567
2 -14.7692 2.25091 0.152092
1 -1.37348 10.0966 10.95
2 -8.02981 6.24931 -10.9743
1 -9.33988 -11.5639 -0.00269975
2 -9.36436 -3.84792 11.046
2 -9.38883 3.87438 -10.8724
2 5.28781 -13.8531 0.0336752
3 -8.04865 -6.12869 11.0178
3 -1.35931 -10.0603 -10.9548
2 14.6439 -2.19681 -0.0172817
3 7.98057 -6.3239 11.0542
2 1.27849 -10.0349 -10.877
2 1.26792 6.98804 13.1308
1 -5.42246 -4.5853 13.0494
3 -6.77221 -2.28422 13.1149
2 6.75002 2.41262 -13.1282
1 -6.6877 2.32529 -13.1512
1 -5.39852 4.69581 -13.2419
2 13.4022 3.01069 -2.22044
1 4.00207 13.0946 2.21397
1 -9.37673 10.1021 -2.19466
2 -13.4504 -3.12353 2.2874
2 -4.08024 -13.1192 -2.17865
3 9.30178 -10.0766 2.12885
1 4.03312 -2.46135 13.0838
2 0.0140333 -4.60961 -13.1609
1 11.9342 3.85747 -4.31978
3 2.69622 12.3068 4.38125
2 -9.3687 8.44361 -4.38221
2 -12.1451 -3.78394 4.32688
3 -2.59815 -12.3823 -4.34054
2 9.23864 -8.59794 4.38575
1 1.2736 -2.29779 13.1712
2 -1.24458 -2.21739 -13.1914
2 10.5854 4.59282 -6.51613
2 1.33708 11.6007 6.49008
2 -9.2879 7.01436 -6.54544
1 -10.7909 -4.52451 6.68303
3 -1.32295 -11.6425 -6.5548
1 9.35928 -7.00096 6.59939
2 -1.45232 -2.28982 13.1357
2 -2.68912 -0.0404138 -13.2347
2 9.25387 5.36155 -8.74302
2 -0.0300111 10.8814 8.72719
2 -9.33947 5.49448 -8.73109
2 -9.35076 -5.27376 8.83086
1 0.0740441 -10.7453 -8.74988
1 9.26041 -5.51608 8.79694
1 -4.02617 -2.25595 13.0943
1 -4.01909 2.3217 -13.158
3 13.2879 1.40469 2.10965
2 5.51969 12.3747 -2.38102
3 -8.00485 10.8674 2.07181
2 -13.3325 -1.52318 -2.15436
3 -5.26904 -12.5001 2.20586
1 7.93657 -10.8418 -2.16428
3 12.0487 0.671265 4.31179
2 5.56475 10.782 -4.39419
2 -6.79806 10.0405 4.36909
2 -12.0294 -0.810976 -4.47103
2 -5.29745 -10.9246 4.28834
1 6.66117 -10.1074 -4.38652
1 10.7751 -0.0226975 6.50484
1 5.44515 9.29525 -6.62558
2 -5.35574 9.37317 6.61157
3 -10.6334 0.0010677 -6.61506
2 -5.26689 -9.38415 6.49907
3 5.30485 -9.3271 -6.54904
1 9.33757 -0.760315 8.6859
2 5.37308 7.73519 -8.72597
2 -4.04758 8.59541 8.78813
2 -9.34338 0.703036 -8.77859
1 -5.36156 -7.73157 8.82126
1 4.04547 -8.49952 -8.76203
2 8.05462 -1.59043 10.9512
2 5.36554 6.11829 -10.9482
3 -2.7506 7.70592 10.971
2 -7.8838 1.58808 -11.0236
3 -5.40668 -6.16468 10.9705
1 2.65043 -7.76637 -10.9236
3 12.0738 5.40518 -2.15433
3 1.25356 13.0779 2.20229
2 -10.6972 7.63467 -2.18216
1 -12.1092 -5.37866 2.13469
2 -1.39427 -13.1701 -2.1595
2 10.6761 -7.76057 2.24945
3 2.68739 0.0310144 13.0135
3 1.37509 -2.32087 -13.2494
3 10.6951 6.17132 -4.46405
1 0.0863192 12.3723 4.3762
3 -10.6066 6.17626 -4.33814
2 -10.7298 -6.06625 4.45679
2 0.0354377 -12.426 -4.38536
1 10.5916 -6.20373 4.34341
2 -0.0709255 0.0311481 13.1253
1 0.0144889 0.0204604 -13.1195
3 9.40809 6.87407 -6.56413
1 -1.32775 11.6063 6.56361
2 -10.6731 4.67149 -6.50407
2 -9.33333 -6.91085 6.68003
1 1.34328 -11.5864 -6.51266
1 10.6658 -4.62066 6.47165
1 -2.66119 0.111789 13.0119
1 -1.32223 2.38497 -13.0994
2 12.0048 3.68984 2.13263
1 2.74573 12.3915 -2.36341
1 -9.33665 8.54618 2.23705
2 -12.0235 -3.84726 -2.23099
3 -2.60982 -12.35 2.20136
3 9.34776 -8.4907 -2.18366
3 10.7018 3.05197 4.32374
2 2.73288 10.7175 -4.4602
3 -8.00965 7.70578 4.43362
3 -10.7274 -3.07813 -4.41025
1 -2.58238 -10.8151 4.38709
2 8.03864 -7.81106 -4.33734
2 9.40431 2.27446 6.52316
1 2.73405 9.32915 -6.60052
3 -6.66502 6.9831 6.58768
1 -9.37411 -2.32592 -6.53828
1 -2.6106 -9.30019 6.58774
2 6.69534 -6.97658 -6.58299
3 8.00968 1.5058 8.73244
2 2.70534 7.70452 -8.77452
3 -5.34185 6.23043 8.7551
1 -7.95981 -1.53188 -8.70967
2 -2.72507 -7.74611 8.79006
1 5.38856 -6.16982 -8.78968
2 6.70635 0.819209 10.9296
1 2.63671 6.18265 -10.9023
1 -3.9991 5.46433 10.9306
3 -6.71129 -0.734849 -10.9417
1 -2.6197 -6.21874 11.0676
2 3.96841 -5.32604 -10.9127
2 10.7247 7.62916 -2.25695
1 -1.37176 13.1318 2.16139
3 -12.0996 5.4077 -2.08145
3 -10.8076 -7.68485 2.16151
1 1.34442 -13.1997 -2.1804
1 12.0115 -5.43802 2.1413
2 1.4572 2.34713 13.1365
1 2.76066 -0.0393841 -13.1334
3 9.48612 8.45371 -4.36367
2 -2.60766 12.4031 4.37427
1 -11.8927 3.89716 -4.32249
1 -9.42987 -8.40574 4.47203
1 2.68871 -12.2974 -4.38128
2 11.9996 -3.73733 4.27829
2 -1.39977 2.32464 13.1181
2 1.39489 2.38009 -13.1206
3 10.7666 5.98267 2.16485
2 0.00531036 12.3555 -2.13598
3 -10.7429 6.19986 2.27786
3 -10.7539 -6.20664 -2.17432
2 0.0260178 -12.358 2.23541
2 10.663 -6.19583 -2.15834
3 9.37545 5.40218 4.26893
2 -0.0281127 10.7327 -4.37504
2 -9.358 5.5041 4.40112
1 -9.35706 -5.3881 -4.47889
2 0.0436726 -10.9305 4.48039
2 9.30596 -5.4091 -4.45804
2 8.06922 4.5464 6.52984
2 -0.03207 9.27556 -6.53115
1 -7.9826 4.6793 6.64484
3 -7.99143 -4.72152 -6.63679
2 0.0637365 -9.33348 6.60295
3 7.98228 -4.68842 -6.66356
1 6.71349 3.84813 8.66431
2 0.122161 7.70922 -8.7587
3 -6.65632 3.87432 8.70286
2 -6.76252 -4.00133 -8.75939
1 0.063295 -7.84276 8.83315
3 6.6429 -3.8116 -8.8174
2 5.33397 3.04128 10.9076
3 0.0674626 6.26494 -10.908
1 -5.32303 3.16488 10.8355
1 -5.28408 -3.04014 -11.0314
3 0.0834008 -6.26265 11.098
3 5.32759 -3.08184 -10.8364
2 9.38363 10.0171 -2.29339
1 -3.97953 13.1689 2.22719
2 -13.2966 3.05764 -2.0931
1 -9.3314 -10.0082 2.22221
2 3.94512 -13.1281 -2.12893
2 13.3461 -2.96317 2.12257
2 0.0408874 4.63421 13.1812
3 4.13498 2.33591 -13.0535
2 9.4318 8.37727 2.13426
1 -2.66876 12.4186 -2.20774
3 -12.0422 3.86112 2.22444
1 -9.32923 -8.51922 -2.28277
3 2.66254 -12.4077 2.241
1 11.9921 -3.90981 -2.20336
2 8.002 7.69372 4.38616
2 -2.65824 10.9291 -4.32153
2 -10.7212 3.07167 4.26413
3 -7.96357 -7.76906 -4.42103
2 2.65449 -10.9095 4.42654
2 10.7417 -3.04871 -4.48062
2 6.553 6.98407 6.58283
2 -2.56116 9.33716 -6.56132
2 -9.329 2.23188 6.62656
2 -6.71326 -7.03751 -6.50412
1 2.73969 -9.26029 6.60215
1 9.35658 -2.33439 -6.60554
1 5.32749 6.23955 8.73527
2 -2.604 7.80712 -8.76893
3 -8.03176 1.55997 8.71002
2 -5.3608 -6.34175 -8.77596
1 2.77024 -7.757 8.77895
3 7.97872 -1.55269 -8.7654
2 3.91216 5.31744 10.8798
2 -2.59339 6.18175 -11.0399
2 -6.66704 0.716826 10.8463
1 -3.98868 -5.51385 -10.9255
1 2.66572 -6.16041 11.0374
2 6.67682 -0.83034 -10.7961
2 8.00749 10.8244 2.17452
1 -5.42845 12.3494 -2.19734
1 -13.3308 1.56762 2.18757
2 -8.00659 -10.8027 -2.22208
1 5.2973 -12.3319 2.16536
3 13.2952 -1.48294 -2.1815
3 6.62043 9.97862 4.27828
2 -5.35995 10.8547 -4.34527
2 -12.0926 0.805046 4.31713
1 -6.65702 -10.0298 -4.4006
2 5.34437 -10.8509 4.37866
3 11.9828 -0.762448 -4.34811
3 5.2777 9.27864 6.46047
2 -5.39586 9.2919 -6.56635
2 -10.6984 -0.00414307 6.56444
3 -5.33901 -9.31343 -6.63088
2 5.3515 -9.2553 6.58476
1 10.6751 -0.0279517 -6.59165
1 3.93133 8.55855 8.69227
2 -5.4116 7.81468 -8.76339
2 -9.33194 -0.792912 8.87046
2 -3.93944 -8.60951 -8.69295
1 5.40579 -7.6346 8.79594
2 9.29218 0.709945 -8.82259
1 2.66127 7.82314 10.94
2 -5.28516 6.28599 -10.9568
2 -8.00055 -1.56741 11.0005
2 -2.60079 -7.75699 -10.9353
3 5.27637 -6.19878 11.0163
2 7.95364 1.54214 -10.9212
3 18.6657 0.00129601 0.039969
1 9.36702 16.1716 -0.101716
3 -9.36835 16.2605 0.0979351
1 -18.8164 0.0280177 -0.0243216
1 -9.32026 -16.2473 -0.0664725
3 9.40696 -16.2699 0.031448
1 9.38505 -5.43503 15.3507
3 -0.0938159 10.8984 15.2984
3 -9.36671 -5.33973 15.3364
3 0.00699374 -10.8339 -15.358
2 9.23793 5.35362 -15.3878
3 -9.36206 5.35183 -15.3585
1 17.345 2.39701 -0.016471
3 17.3125 -0.749305 2.18952
2 17.453 0.854726 -2.20292
2 6.72353 16.2244 -0.0587769
2 8.05944 15.408 2.06985
2 9.45491 14.5314 -2.29727
3 -10.6518 13.9324 -0.0713486
2 -8.03602 15.4006 2.12791
1 -9.44383 14.7653 -2.13678
1 -17.415 -2.33351 0.017995
2 -17.5414 -0.883749 2.17517
2 -17.4691 0.698775 -2.1961
2 -6.74933 -16.2134 0.0670279
2 -9.21623 -14.7284 2.15481
3 -7.98743 -15.4239 -2.24486
2 10.6634 -13.9262 0.00303872
1 9.3788 -14.6542 2.15859
2 8.10066 -15.5827 -2.18165
3 7.92977 -3.10396 15.3618
3 6.67249 -5.38515 15.3176
3 -1.37943 8.59497 15.2605
2 1.37128 -8.54321 -15.3615
1 -1.2815 -8.49963 -15.3489
3 6.70777 5.46409 -15.3247
3 16.0413 4.56342 0.0317285
3 16.0599 -1.5129 4.35226
2 16.07 1.57824 -4.35763
1 3.99108 16.2218 -0.0263867
2 6.67688 14.5363 4.3819
3 9.48041 13.2178 -4.37411
2 -11.9559 11.7239 0.0553086
2 -6.65387 14.6978 4.40996
3 -9.35923 13.1737 -4.36744
1 -15.9624 -4.63672 -0.0445006
1 -16.0538 -1.5069 4.36654
1 -16.073 1.43947 -4.273
1 -4.03974 -16.2088 0.0561526
1 -9.39609 -13.1682 4.31893
2 -6.75344 -14.6554 -4.41129
1 11.9245 -11.6668 0.0553243
1 9.295 -13.1217 4.4666
1 6.79492 -14.6002 -4.42429
1 6.71446 -0.817695 15.2949
1 4.06393 -5.48099 15.3748
3 -2.61596 6.20073 15.2864
2 2.59527 -6.14071 -15.3315
3 -2.62669 -6.13565 -15.3762
2 4.09341 5.44652 -15.2057
2 14.7993 6.88853 -0.0463435
3 14.6917 -2.33709 6.45203
2 14.6811 2.29711 -6.56202
2 1.37427 16.2332 -0.0587991
3 5.27075 13.9304 6.44411
2 9.31806 11.7228 -6.62342
2 -13.3947 9.36918 0.0648052
1 -5.31125 13.8786 6.54848
3 -9.35264 11.5994 -6.47067
3 -14.6679 -6.9243 0.0213071
1 -14.7163 -2.26227 6.5793
2 -14.7773 2.28315 -6.47564
2 -1.31855 -16.2647 0.0239123
3 -9.24272 -11.6968 6.5753
1 -5.23745 -13.9106 -6.63735
2 13.262 -9.29914 -0.0178728
2 9.36804 -11.5672 6.60469
2 5.43953 -13.8693 -6.60391
2 5.248 1.48068 15.2316
1 1.35458 -5.44198 15.3601
2 -3.94805 3.82048 15.2628
2 4.04399 -3.82514 -15.1285
3 -4.00974 -3.82982 -15.2917
2 1.27238 5.48479 -15.2612
3 13.4192 9.20646 -0.062527
2 13.3104 -3.00526 8.6931
2 13.3103 3.05828 -8.71275
2 -1.30914 16.219 0.0142111
2 3.96623 13.1932 8.70675
1 9.35381 9.97072 -8.88771
2 -14.7157 6.95396 0.0158161
2 -3.96292 13.1392 8.79893
1 -9.29446 10.0827 -8.71615
3 -13.3988 -9.14982 -0.0259647
3 -13.4814 -3.09479 8.77642
1 -13.3673 3.01558 -8.74393
3 1.29272 -16.1451 0.0747009
2 -9.34463 -10.1789 8.77601
3 -3.98432 -13.1843 -8.77219
2 14.5623 -6.88488 0.0554589
1 9.35824 -10.0784 8.75987
2 4.06411 -13.1583 -8.80087
2 3.94826 3.78577 15.227
2 -1.26321 -5.52343 15.3826
2 -5.31688 1.54274 15.2541
2 5.35759 -1.5074 -15.2509
3 -5.31035 -1.58247 -15.328
1 -1.29952 5.43971 -15.2015
1 12.0004 11.5705 -0.0327806
1 12.1138 -3.91793 10.8535
2 11.9391 3.88555 -10.87
3 -4.03598 16.1927 -0.0322128
2 2.60433 12.3904 10.9058
2 9.44341 8.58051 -11.0455
2 -16.094 4.50912 0.044876
1 -2.67609 12.3736 10.9243
2 -9.39138 8.51783 -10.9718
3 -12.0646 -11.6117 0.0142162
1 -12.0225 -3.82749 10.9482
1 -11.9681 3.85291 -10.9546
2 3.97017 -16.2624 0.0431686
2 -9.37163 -8.33046 11.0137
3 -2.71234 -12.3563 -10.9612
2 15.9956 -4.54484 0.0744912
2 9.28648 -8.55202 10.9102
2 2.65697 -12.3632 -10.9692
2 2.62933 6.1119 15.2504
2 -4.01498 -5.4105 15.3713
1 -6.76909 -0.793041 15.1704
1 6.68247 0.7733 -15.2712
3 -6.69437 0.824305 -15.3689
2 -3.91697 5.4568 -15.2713
3 10.7521 13.8752 -0.0754453
1 10.7827 -4.72088 13.1355
2 10.5797 4.67519 -13.1913
1 -6.75904 16.2315 0.0983538
3 1.31361 11.7562 13.0664
3 9.32656 6.99539 -13.2081
3 -17.4253 2.27772 -0.0605683
3 -1.30354 11.672 13.0836
3 -9.40474 6.86391 -13.2258
1 -10.657 -13.9176 0.0331345
3 -10.8104 -4.73953 13.1324
2 -10.6295 4.64624 -13.1831
1 6.76235 -16.1565 0.0110995
2 -9.44741 -6.89578 13.1561
3 -1.26766 -11.5924 -13.1731
3 17.3527 -2.26371 -0.00103909
2 9.3006 -6.96624 13.2294
2 1.31789 -11.6975 -13.3387
2 1.25977 8.58304 15.3215
2 -6.79723 -5.38616 15.2675
3 -8.04446 -3.08505 15.2006
1 8.06631 3.12213 -15.2887
3 -8.04575 3.12939 -15.4297
2 -6.77406 5.42258 -15.4082
3 15.9999 3.17618 -2.27438