LAMMPS DATA FOR MEAM SIMULATION

   4121   atoms
      3   atom types

  -33.55   33.55   xlo xhi
  -33.55   33.55   ylo yhi
  -33.55   33.55   zlo zhi

 Atoms

     1   1     0.00000    -7.84889   -23.54666
     2   2    -3.92444    -3.92444   -23.54666
     3   2     0.00000    -3.92444   -23.54666
     4   2     3.92444    -3.92444   -23.54666
     5   1    -7.84889     0.00000   -23.54666
     6   2    -3.92444     0.00000   -23.54666
     7   2     0.00000     0.00000   -23.54666
     8   2     3.92444     0.00000   -23.54666
     9   3     7.84889     0.00000   -23.54666
    10   1    -3.92444     3.92444   -23.54666
    11   1     0.00000     3.92444   -23.54666
    12   1     3.92444     3.92444   -23.54666
    13   1     0.00000     7.84889   -23.54666
    14   2    -7.84889   -11.77333   -19.62221
    15   1     0.00000   -11.77333   -19.62221
    16   3     3.92444   -11.77333   -19.62221
    17   2     7.84889   -11.77333   -19.62221
    18   3   -11.77333    -7.84889   -19.62221
    19   3    -7.84889    -7.84889   -19.62221
    20   1    -3.92444    -7.84889   -19.62221
    21   2     0.00000    -7.84889   -19.62221
    22   1     3.92444    -7.84889   -19.62221
    23   2     7.84889    -7.84889   -19.62221
    24   3    11.77333    -7.84889   -19.62221
    25   1   -11.77333    -3.92444   -19.62221
    26   3    -7.84889    -3.92444   -19.62221
    27   2    -3.92444    -3.92444   -19.62221
    28   1     0.00000    -3.92444   -19.62221
    29   2     3.92444    -3.92444   -19.62221
    30   3     7.84889    -3.92444   -19.62221
    31   2    11.77333    -3.92444   -19.62221
    32   3   -11.77333     0.00000   -19.62221
    33   3    -7.84889     0.00000   -19.62221
    34   2    -3.92444     0.00000   -19.62221
    35   3     0.00000     0.00000   -19.62221
    36   2     3.92444     0.00000   -19.62221
    37   2     7.84889     0.00000   -19.62221
    38   2    11.77333     0.00000   -19.62221
    39   3   -11.77333     3.92444   -19.62221
    40   1    -7.84889     3.92444   -19.62221
    41   3    -3.92444     3.92444   -19.62221
    42   2     0.00000     3.92444   -19.62221
    43   2     3.92444     3.92444   -19.62221
    44   2     7.84889     3.92444   -19.62221
    45   2    11.77333     3.92444   -19.62221
    46   2   -11.77333     7.84889   -19.62221
    47   3    -7.84889     7.84889   -19.62221
    48   3    -3.92444     7.84889   -19.62221
    49   3     0.00000     7.84889   -19.62221
    50   3     3.92444     7.84889   -19.62221
    51   3     7.84889     7.84889   -19.62221
    52   3    11.77333     7.84889   -19.62221
    53   2    -7.84889    11.77333   -19.62221
    54   1    -3.92444    11.77333   -19.62221
    55   2     0.00000    11.77333   -19.62221
    56   1     3.92444    11.77333   -19.62221
    57   3     7.84889    11.77333   -19.62221
    58   3    -7.84889   -15.69777   -15.69777
    59   1    -3.92444   -15.69777   -15.69777
    60   3     0.00000   -15.69777   -15.69777
    61   3     3.92444   -15.69777   -15.69777
    62   3     7.84889   -15.69777   -15.69777
    63   2   -11.77333   -11.77333   -15.69777
    64   1    -3.92444   -11.77333   -15.69777
    65   2     0.00000   -11.77333   -15.69777
    66   2     3.92444   -11.77333   -15.69777
    67   2     7.84889   -11.77333   -15.69777
    68   1    11.77333   -11.77333   -15.69777
    69   3   -15.69777    -7.84889   -15.69777
    70   1   -11.77333    -7.84889   -15.69777
    71   1    -7.84889    -7.84889   -15.69777
    72   2    -3.92444    -7.84889   -15.69777
    73   1     0.00000    -7.84889   -15.69777
    74   1     3.92444    -7.84889   -15.69777
    75   1     7.84889    -7.84889   -15.69777
    76   1    11.77333    -7.84889   -15.69777
    77   2    15.69777    -7.84889   -15.69777
    78   1   -15.69777    -3.92444   -15.69777
    79   2   -11.77333    -3.92444   -15.69777
    80   3    -7.84889    -3.92444   -15.69777
    81   3    -3.92444    -3.92444   -15.69777
    82   2     0.00000    -3.92444   -15.69777
    83   1     3.92444    -3.92444   -15.69777
    84   3     7.84889    -3.92444   -15.69777
    85   2    11.77333    -3.92444   -15.69777
    86   1    15.69777    -3.92444   -15.69777
    87   3   -15.69777     0.00000   -15.69777
    88   2   -11.77333     0.00000   -15.69777
    89   3    -7.84889     0.00000   -15.69777
    90   1    -3.92444     0.00000   -15.69777
    91   1     0.00000     0.00000   -15.69777
    92   1     3.92444     0.00000   -15.69777
    93   2     7.84889     0.00000   -15.69777
    94   1    11.77333     0.00000   -15.69777
    95   2    15.69777     0.00000   -15.69777
    96   1   -15.69777     3.92444   -15.69777
    97   2   -11.77333     3.92444   -15.69777
    98   2    -7.84889     3.92444   -15.69777
    99   2    -3.92444     3.92444   -15.69777
   100   2     0.00000     3.92444   -15.69777
   101   3     3.92444     3.92444   -15.69777
   102   2     7.84889     3.92444   -15.69777
   103   1    11.77333     3.92444   -15.69777
   104   2    15.69777     3.92444   -15.69777
   105   2   -15.69777     7.84889   -15.69777
   106   2   -11.77333     7.84889   -15.69777
   107   2    -7.84889     7.84889   -15.69777
   108   1    -3.92444     7.84889   -15.69777
   109   2     0.00000     7.84889   -15.69777
   110   1     3.92444     7.84889   -15.69777
   111   1     7.84889     7.84889   -15.69777
   112   1    11.77333     7.84889   -15.69777
   113   1    15.69777     7.84889   -15.69777
   114   3   -11.77333    11.77333   -15.69777
   115   3    -7.84889    11.77333   -15.69777
   116   2    -3.92444    11.77333   -15.69777
   117   1     3.92444    11.77333   -15.69777
   118   2     7.84889    11.77333   -15.69777
   119   1    11.77333    11.77333   -15.69777
   120   3    -7.84889    15.69777   -15.69777
   121   3     0.00000    15.69777   -15.69777
   122   3     3.92444    15.69777   -15.69777
   123   1     7.84889    15.69777   -15.69777
   124   2    -7.84889   -19.62221   -11.77333
   125   3    -3.92444   -19.62221   -11.77333
   126   2     0.00000   -19.62221   -11.77333
   127   2     3.92444   -19.62221   -11.77333
   128   2     7.84889   -19.62221   -11.77333
   129   2   -11.77333   -15.69777   -11.77333
   130   1    -7.84889   -15.69777   -11.77333
   131   1    -3.92444   -15.69777   -11.77333
   132   3     0.00000   -15.69777   -11.77333
   133   2     3.92444   -15.69777   -11.77333
   134   3     7.84889   -15.69777   -11.77333
   135   1    11.77333   -15.69777   -11.77333
   136   2   -15.69777   -11.77333   -11.77333
   137   2   -11.77333   -11.77333   -11.77333
   138   1    -7.84889   -11.77333   -11.77333
   139   2    -3.92444   -11.77333   -11.77333
   140   1     0.00000   -11.77333   -11.77333
   141   2     3.92444   -11.77333   -11.77333
   142   1     7.84889   -11.77333   -11.77333
   143   2    11.77333   -11.77333   -11.77333
   144   1    15.69777   -11.77333   -11.77333
   145   3   -19.62221    -7.84889   -11.77333
   146   2   -15.69777    -7.84889   -11.77333
   147   1   -11.77333    -7.84889   -11.77333
   148   3    -7.84889    -7.84889   -11.77333
   149   1    -3.92444    -7.84889   -11.77333
   150   2     0.00000    -7.84889   -11.77333
   151   3     3.92444    -7.84889   -11.77333
   152   1     7.84889    -7.84889   -11.77333
   153   1    11.77333    -7.84889   -11.77333
   154   1    15.69777    -7.84889   -11.77333
   155   1    19.62221    -7.84889   -11.77333
   156   2   -19.62221    -3.92444   -11.77333
   157   2   -15.69777    -3.92444   -11.77333
   158   2   -11.77333    -3.92444   -11.77333
   159   2    -7.84889    -3.92444   -11.77333
   160   2    -3.92444    -3.92444   -11.77333
   161   3     0.00000    -3.92444   -11.77333
   162   2     3.92444    -3.92444   -11.77333
   163   2     7.84889    -3.92444   -11.77333
   164   2    11.77333    -3.92444   -11.77333
   165   2    15.69777    -3.92444   -11.77333
   166   3    19.62221    -3.92444   -11.77333
   167   3   -19.62221     0.00000   -11.77333
   168   1   -15.69777     0.00000   -11.77333
   169   2   -11.77333     0.00000   -11.77333
   170   2    -7.84889     0.00000   -11.77333
   171   1    -3.92444     0.00000   -11.77333
   172   2     0.00000     0.00000   -11.77333
   173   2     3.92444     0.00000   -11.77333
   174   1     7.84889     0.00000   -11.77333
   175   2    11.77333     0.00000   -11.77333
   176   3    15.69777     0.00000   -11.77333
   177   2    19.62221     0.00000   -11.77333
   178   1   -19.62221     3.92444   -11.77333
   179   3   -15.69777     3.92444   -11.77333
   180   3   -11.77333     3.92444   -11.77333
   181   2    -7.84889     3.92444   -11.77333
   182   2    -3.92444     3.92444   -11.77333
   183   3     0.00000     3.92444   -11.77333
   184   2     3.92444     3.92444   -11.77333
   185   2     7.84889     3.92444   -11.77333
   186   3    11.77333     3.92444   -11.77333
   187   2    15.69777     3.92444   -11.77333
   188   2    19.62221     3.92444   -11.77333
   189   2   -19.62221     7.84889   -11.77333
   190   1   -15.69777     7.84889   -11.77333
   191   2   -11.77333     7.84889   -11.77333
   192   2    -7.84889     7.84889   -11.77333
   193   3    -3.92444     7.84889   -11.77333
   194   2     0.00000     7.84889   -11.77333
   195   2     3.92444     7.84889   -11.77333
   196   3     7.84889     7.84889   -11.77333
   197   3    11.77333     7.84889   -11.77333
   198   3    15.69777     7.84889   -11.77333
   199   1    19.62221     7.84889   -11.77333
   200   2   -15.69777    11.77333   -11.77333
   201   3   -11.77333    11.77333   -11.77333
   202   2    -7.84889    11.77333   -11.77333
   203   2    -3.92444    11.77333   -11.77333
   204   3     0.00000    11.77333   -11.77333
   205   1     3.92444    11.77333   -11.77333
   206   3     7.84889    11.77333   -11.77333
   207   2    11.77333    11.77333   -11.77333
   208   1    15.69777    11.77333   -11.77333
   209   3   -11.77333    15.69777   -11.77333
   210   1    -7.84889    15.69777   -11.77333
   211   1    -3.92444    15.69777   -11.77333
   212   2     0.00000    15.69777   -11.77333
   213   1     3.92444    15.69777   -11.77333
   214   3     7.84889    15.69777   -11.77333
   215   3    11.77333    15.69777   -11.77333
   216   2    -7.84889    19.62221   -11.77333
   217   2     0.00000    19.62221   -11.77333
   218   3     3.92444    19.62221   -11.77333
   219   2     7.84889    19.62221   -11.77333
   220   3     0.00000   -23.54666    -7.84889
   221   2    -7.84889   -19.62221    -7.84889
   222   1    -3.92444   -19.62221    -7.84889
   223   2     0.00000   -19.62221    -7.84889
   224   2     3.92444   -19.62221    -7.84889
   225   2     7.84889   -19.62221    -7.84889
   226   2    11.77333   -19.62221    -7.84889
   227   3   -15.69777   -15.69777    -7.84889
   228   2   -11.77333   -15.69777    -7.84889
   229   2    -7.84889   -15.69777    -7.84889
   230   1    -3.92444   -15.69777    -7.84889
   231   3     0.00000   -15.69777    -7.84889
   232   2     7.84889   -15.69777    -7.84889
   233   2    11.77333   -15.69777    -7.84889
   234   1    15.69777   -15.69777    -7.84889
   235   1   -19.62221   -11.77333    -7.84889
   236   1   -15.69777   -11.77333    -7.84889
   237   2   -11.77333   -11.77333    -7.84889
   238   1    -3.92444   -11.77333    -7.84889
   239   1     0.00000   -11.77333    -7.84889
   240   1     3.92444   -11.77333    -7.84889
   241   2     7.84889   -11.77333    -7.84889
   242   2    11.77333   -11.77333    -7.84889
   243   1    15.69777   -11.77333    -7.84889
   244   1    19.62221   -11.77333    -7.84889
   245   2   -15.69777    -7.84889    -7.84889
   246   2   -11.77333    -7.84889    -7.84889
   247   2    -7.84889    -7.84889    -7.84889
   248   3    -3.92444    -7.84889    -7.84889
   249   1     0.00000    -7.84889    -7.84889
   250   1     3.92444    -7.84889    -7.84889
   251   1     7.84889    -7.84889    -7.84889
   252   2    11.77333    -7.84889    -7.84889
   253   1    15.69777    -7.84889    -7.84889
   254   3    19.62221    -7.84889    -7.84889
   255   1   -19.62221    -3.92444    -7.84889
   256   1   -15.69777    -3.92444    -7.84889
   257   2   -11.77333    -3.92444    -7.84889
   258   1    -7.84889    -3.92444    -7.84889
   259   2    -3.92444    -3.92444    -7.84889
   260   2     0.00000    -3.92444    -7.84889
   261   2     3.92444    -3.92444    -7.84889
   262   3     7.84889    -3.92444    -7.84889
   263   2    11.77333    -3.92444    -7.84889
   264   3    15.69777    -3.92444    -7.84889
   265   3    19.62221    -3.92444    -7.84889
   266   2   -23.54666     0.00000    -7.84889
   267   2   -19.62221     0.00000    -7.84889
   268   3   -15.69777     0.00000    -7.84889
   269   3   -11.77333     0.00000    -7.84889
   270   1    -3.92444     0.00000    -7.84889
   271   3     0.00000     0.00000    -7.84889
   272   2     7.84889     0.00000    -7.84889
   273   3    11.77333     0.00000    -7.84889
   274   1    15.69777     0.00000    -7.84889
   275   3    19.62221     0.00000    -7.84889
   276   3    23.54666     0.00000    -7.84889
   277   2   -15.69777     3.92444    -7.84889
   278   2   -11.77333     3.92444    -7.84889
   279   3    -7.84889     3.92444    -7.84889
   280   1    -3.92444     3.92444    -7.84889
   281   3     0.00000     3.92444    -7.84889
   282   2     3.92444     3.92444    -7.84889
   283   3     7.84889     3.92444    -7.84889
   284   1    11.77333     3.92444    -7.84889
   285   2    15.69777     3.92444    -7.84889
   286   2    19.62221     3.92444    -7.84889
   287   2   -19.62221     7.84889    -7.84889
   288   3   -15.69777     7.84889    -7.84889
   289   2   -11.77333     7.84889    -7.84889
   290   2    -7.84889     7.84889    -7.84889
   291   2    -3.92444     7.84889    -7.84889
   292   1     0.00000     7.84889    -7.84889
   293   2     3.92444     7.84889    -7.84889
   294   2     7.84889     7.84889    -7.84889
   295   1    11.77333     7.84889    -7.84889
   296   2    15.69777     7.84889    -7.84889
   297   2    19.62221     7.84889    -7.84889
   298   1   -19.62221    11.77333    -7.84889
   299   1   -15.69777    11.77333    -7.84889
   300   3   -11.77333    11.77333    -7.84889
   301   2    -7.84889    11.77333    -7.84889
   302   2    -3.92444    11.77333    -7.84889
   303   2     0.00000    11.77333    -7.84889
   304   2     3.92444    11.77333    -7.84889
   305   2     7.84889    11.77333    -7.84889
   306   2    11.77333    11.77333    -7.84889
   307   1    15.69777    11.77333    -7.84889
   308   2    19.62221    11.77333    -7.84889
   309   1   -15.69777    15.69777    -7.84889
   310   1   -11.77333    15.69777    -7.84889
   311   3    -7.84889    15.69777    -7.84889
   312   3    -3.92444    15.69777    -7.84889
   313   3     0.00000    15.69777    -7.84889
   314   2     3.92444    15.69777    -7.84889
   315   2     7.84889    15.69777    -7.84889
   316   2    11.77333    15.69777    -7.84889
   317   1    15.69777    15.69777    -7.84889
   318   3   -11.77333    19.62221    -7.84889
   319   2    -7.84889    19.62221    -7.84889
   320   1    -3.92444    19.62221    -7.84889
   321   1     3.92444    19.62221    -7.84889
   322   2     7.84889    19.62221    -7.84889
   323   1    11.77333    19.62221    -7.84889
   324   2     0.00000    23.54666    -7.84889
   325   2    -3.92444   -23.54666    -3.92444
   326   2     0.00000   -23.54666    -3.92444
   327   3     3.92444   -23.54666    -3.92444
   328   1   -11.77333   -19.62221    -3.92444
   329   1    -7.84889   -19.62221    -3.92444
   330   1    -3.92444   -19.62221    -3.92444
   331   1     0.00000   -19.62221    -3.92444
   332   2     3.92444   -19.62221    -3.92444
   333   1     7.84889   -19.62221    -3.92444
   334   3    11.77333   -19.62221    -3.92444
   335   2   -11.77333   -15.69777    -3.92444
   336   2    -7.84889   -15.69777    -3.92444
   337   2    -3.92444   -15.69777    -3.92444
   338   1     0.00000   -15.69777    -3.92444
   339   2     3.92444   -15.69777    -3.92444
   340   2     7.84889   -15.69777    -3.92444
   341   3    11.77333   -15.69777    -3.92444
   342   2    15.69777   -15.69777    -3.92444
   343   2   -19.62221   -11.77333    -3.92444
   344   3   -15.69777   -11.77333    -3.92444
   345   2   -11.77333   -11.77333    -3.92444
   346   2    -7.84889   -11.77333    -3.92444
   347   2    -3.92444   -11.77333    -3.92444
   348   1     0.00000   -11.77333    -3.92444
   349   2     3.92444   -11.77333    -3.92444
   350   2    11.77333   -11.77333    -3.92444
   351   1    15.69777   -11.77333    -3.92444
   352   2    19.62221   -11.77333    -3.92444
   353   3   -15.69777    -7.84889    -3.92444
   354   3   -11.77333    -7.84889    -3.92444
   355   2    -7.84889    -7.84889    -3.92444
   356   2    -3.92444    -7.84889    -3.92444
   357   2     0.00000    -7.84889    -3.92444
   358   2     3.92444    -7.84889    -3.92444
   359   3     7.84889    -7.84889    -3.92444
   360   2    11.77333    -7.84889    -3.92444
   361   1    15.69777    -7.84889    -3.92444
   362   1    19.62221    -7.84889    -3.92444
   363   3   -23.54666    -3.92444    -3.92444
   364   3   -19.62221    -3.92444    -3.92444
   365   1   -15.69777    -3.92444    -3.92444
   366   2   -11.77333    -3.92444    -3.92444
   367   2    -7.84889    -3.92444    -3.92444
   368   3    -3.92444    -3.92444    -3.92444
   369   1     0.00000    -3.92444    -3.92444
   370   1     3.92444    -3.92444    -3.92444
   371   1     7.84889    -3.92444    -3.92444
   372   1    11.77333    -3.92444    -3.92444
   373   3    15.69777    -3.92444    -3.92444
   374   3    23.54666    -3.92444    -3.92444
   375   2   -23.54666     0.00000    -3.92444
   376   3   -19.62221     0.00000    -3.92444
   377   2   -15.69777     0.00000    -3.92444
   378   2   -11.77333     0.00000    -3.92444
   379   2    -7.84889     0.00000    -3.92444
   380   2    -3.92444     0.00000    -3.92444
   381   2     0.00000     0.00000    -3.92444
   382   2     7.84889     0.00000    -3.92444
   383   2    11.77333     0.00000    -3.92444
   384   2    15.69777     0.00000    -3.92444
   385   3    19.62221     0.00000    -3.92444
   386   2   -23.54666     3.92444    -3.92444
   387   1   -19.62221     3.92444    -3.92444
   388   2   -15.69777     3.92444    -3.92444
   389   2   -11.77333     3.92444    -3.92444
   390   1    -3.92444     3.92444    -3.92444
   391   2     0.00000     3.92444    -3.92444
   392   3     3.92444     3.92444    -3.92444
   393   1     7.84889     3.92444    -3.92444
   394   3    11.77333     3.92444    -3.92444
   395   2    15.69777     3.92444    -3.92444
   396   2    23.54666     3.92444    -3.92444
   397   3   -19.62221     7.84889    -3.92444
   398   2   -15.69777     7.84889    -3.92444
   399   2   -11.77333     7.84889    -3.92444
   400   2    -7.84889     7.84889    -3.92444
   401   2    -3.92444     7.84889    -3.92444
   402   2     0.00000     7.84889    -3.92444
   403   2     3.92444     7.84889    -3.92444
   404   2     7.84889     7.84889    -3.92444
   405   2    11.77333     7.84889    -3.92444
   406   1    15.69777     7.84889    -3.92444
   407   2    19.62221     7.84889    -3.92444
   408   1   -19.62221    11.77333    -3.92444
   409   2   -11.77333    11.77333    -3.92444
   410   1    -7.84889    11.77333    -3.92444
   411   3    -3.92444    11.77333    -3.92444
   412   3     0.00000    11.77333    -3.92444
   413   2     3.92444    11.77333    -3.92444
   414   3     7.84889    11.77333    -3.92444
   415   2    11.77333    11.77333    -3.92444
   416   2    15.69777    11.77333    -3.92444
   417   2    19.62221    11.77333    -3.92444
   418   2   -15.69777    15.69777    -3.92444
   419   1   -11.77333    15.69777    -3.92444
   420   2    -7.84889    15.69777    -3.92444
   421   1    -3.92444    15.69777    -3.92444
   422   2     0.00000    15.69777    -3.92444
   423   3     3.92444    15.69777    -3.92444
   424   2     7.84889    15.69777    -3.92444
   425   2    11.77333    15.69777    -3.92444
   426   2    15.69777    15.69777    -3.92444
   427   2   -11.77333    19.62221    -3.92444
   428   2    -7.84889    19.62221    -3.92444
   429   3    -3.92444    19.62221    -3.92444
   430   3     0.00000    19.62221    -3.92444
   431   2     3.92444    19.62221    -3.92444
   432   1     7.84889    19.62221    -3.92444
   433   2    11.77333    19.62221    -3.92444
   434   2    -3.92444    23.54666    -3.92444
   435   1     0.00000    23.54666    -3.92444
   436   1     3.92444    23.54666    -3.92444
   437   3    -7.84889   -23.54666     0.00000
   438   1    -3.92444   -23.54666     0.00000
   439   1     0.00000   -23.54666     0.00000
   440   2     3.92444   -23.54666     0.00000
   441   2     7.84889   -23.54666     0.00000
   442   2   -11.77333   -19.62221     0.00000
   443   3    -7.84889   -19.62221     0.00000
   444   2    -3.92444   -19.62221     0.00000
   445   3     0.00000   -19.62221     0.00000
   446   2     3.92444   -19.62221     0.00000
   447   1     7.84889   -19.62221     0.00000
   448   2    11.77333   -19.62221     0.00000
   449   2   -15.69777   -15.69777     0.00000
   450   3   -11.77333   -15.69777     0.00000
   451   2    -7.84889   -15.69777     0.00000
   452   1    -3.92444   -15.69777     0.00000
   453   2     0.00000   -15.69777     0.00000
   454   2     3.92444   -15.69777     0.00000
   455   2     7.84889   -15.69777     0.00000
   456   2    11.77333   -15.69777     0.00000
   457   3    15.69777   -15.69777     0.00000
   458   2   -19.62221   -11.77333     0.00000
   459   2   -15.69777   -11.77333     0.00000
   460   2   -11.77333   -11.77333     0.00000
   461   3    -7.84889   -11.77333     0.00000
   462   2    -3.92444   -11.77333     0.00000
   463   3     0.00000   -11.77333     0.00000
   464   2     3.92444   -11.77333     0.00000
   465   3    11.77333   -11.77333     0.00000
   466   2    15.69777   -11.77333     0.00000
   467   1    19.62221   -11.77333     0.00000
   468   2   -23.54666    -7.84889     0.00000
   469   1   -19.62221    -7.84889     0.00000
   470   2   -15.69777    -7.84889     0.00000
   471   3   -11.77333    -7.84889     0.00000
   472   2    -7.84889    -7.84889     0.00000
   473   2    -3.92444    -7.84889     0.00000
   474   2     0.00000    -7.84889     0.00000
   475   1     3.92444    -7.84889     0.00000
   476   3     7.84889    -7.84889     0.00000
   477   2    11.77333    -7.84889     0.00000
   478   2    15.69777    -7.84889     0.00000
   479   2    19.62221    -7.84889     0.00000
   480   2    23.54666    -7.84889     0.00000
   481   2   -23.54666    -3.92444     0.00000
   482   3   -19.62221    -3.92444     0.00000
   483   2   -15.69777    -3.92444     0.00000
   484   1   -11.77333    -3.92444     0.00000
   485   2    -7.84889    -3.92444     0.00000
   486   1    -3.92444    -3.92444     0.00000
   487   2     0.00000    -3.92444     0.00000
   488   3     3.92444    -3.92444     0.00000
   489   1    11.77333    -3.92444     0.00000
   490   1    15.69777    -3.92444     0.00000
   491   2    19.62221    -3.92444     0.00000
   492   2    23.54666    -3.92444     0.00000
   493   3   -23.54666     0.00000     0.00000
   494   3   -19.62221     0.00000     0.00000
   495   3   -15.69777     0.00000     0.00000
   496   2   -11.77333     0.00000     0.00000
   497   2    -7.84889     0.00000     0.00000
   498   1    -3.92444     0.00000     0.00000
   499   1     0.00000     0.00000     0.00000
   500   3     3.92444     0.00000     0.00000
   501   1     7.84889     0.00000     0.00000
   502   1    11.77333     0.00000     0.00000
   503   1    15.69777     0.00000     0.00000
   504   2    19.62221     0.00000     0.00000
   505   2    23.54666     0.00000     0.00000
   506   1   -23.54666     3.92444     0.00000
   507   2   -19.62221     3.92444     0.00000
   508   3   -15.69777     3.92444     0.00000
   509   3   -11.77333     3.92444     0.00000
   510   3    -7.84889     3.92444     0.00000
   511   1    -3.92444     3.92444     0.00000
   512   2     0.00000     3.92444     0.00000
   513   2     7.84889     3.92444     0.00000
   514   2    11.77333     3.92444     0.00000
   515   2    15.69777     3.92444     0.00000
   516   2    19.62221     3.92444     0.00000
   517   3    23.54666     3.92444     0.00000
   518   2   -23.54666     7.84889     0.00000
   519   2   -15.69777     7.84889     0.00000
   520   1   -11.77333     7.84889     0.00000
   521   2    -7.84889     7.84889     0.00000
   522   1    -3.92444     7.84889     0.00000
   523   2     0.00000     7.84889     0.00000
   524   2     3.92444     7.84889     0.00000
   525   2     7.84889     7.84889     0.00000
   526   3    11.77333     7.84889     0.00000
   527   2    15.69777     7.84889     0.00000
   528   1    19.62221     7.84889     0.00000
   529   2    23.54666     7.84889     0.00000
   530   3   -19.62221    11.77333     0.00000
   531   3   -15.69777    11.77333     0.00000
   532   2   -11.77333    11.77333     0.00000
   533   1    -7.84889    11.77333     0.00000
   534   2    -3.92444    11.77333     0.00000
   535   2     0.00000    11.77333     0.00000
   536   1     3.92444    11.77333     0.00000
   537   3     7.84889    11.77333     0.00000
   538   3    11.77333    11.77333     0.00000
   539   1    15.69777    11.77333     0.00000
   540   2    19.62221    11.77333     0.00000
   541   3   -15.69777    15.69777     0.00000
   542   2   -11.77333    15.69777     0.00000
   543   2    -7.84889    15.69777     0.00000
   544   3    -3.92444    15.69777     0.00000
   545   2     0.00000    15.69777     0.00000
   546   2     3.92444    15.69777     0.00000
   547   2     7.84889    15.69777     0.00000
   548   3    11.77333    15.69777     0.00000
   549   2    15.69777    15.69777     0.00000
   550   3   -11.77333    19.62221     0.00000
   551   1    -7.84889    19.62221     0.00000
   552   1    -3.92444    19.62221     0.00000
   553   3     0.00000    19.62221     0.00000
   554   2     3.92444    19.62221     0.00000
   555   2     7.84889    19.62221     0.00000
   556   2    11.77333    19.62221     0.00000
   557   2    -7.84889    23.54666     0.00000
   558   2    -3.92444    23.54666     0.00000
   559   2     0.00000    23.54666     0.00000
   560   1     3.92444    23.54666     0.00000
   561   2     7.84889    23.54666     0.00000
   562   3    -3.92444   -23.54666     3.92444
   563   3     0.00000   -23.54666     3.92444
   564   1     3.92444   -23.54666     3.92444
   565   2   -11.77333   -19.62221     3.92444
   566   3    -7.84889   -19.62221     3.92444
   567   1    -3.92444   -19.62221     3.92444
   568   2     0.00000   -19.62221     3.92444
   569   2     3.92444   -19.62221     3.92444
   570   1     7.84889   -19.62221     3.92444
   571   3    11.77333   -19.62221     3.92444
   572   1   -15.69777   -15.69777     3.92444
   573   3   -11.77333   -15.69777     3.92444
   574   2    -7.84889   -15.69777     3.92444
   575   3    -3.92444   -15.69777     3.92444
   576   2     0.00000   -15.69777     3.92444
   577   2     3.92444   -15.69777     3.92444
   578   3     7.84889   -15.69777     3.92444
   579   1    11.77333   -15.69777     3.92444
   580   1    15.69777   -15.69777     3.92444
   581   2   -19.62221   -11.77333     3.92444
   582   3   -15.69777   -11.77333     3.92444
   583   2   -11.77333   -11.77333     3.92444
   584   2    -7.84889   -11.77333     3.92444
   585   3    -3.92444   -11.77333     3.92444
   586   1     0.00000   -11.77333     3.92444
   587   3     3.92444   -11.77333     3.92444
   588   1     7.84889   -11.77333     3.92444
   589   3    15.69777   -11.77333     3.92444
   590   2    19.62221   -11.77333     3.92444
   591   1   -19.62221    -7.84889     3.92444
   592   1   -15.69777    -7.84889     3.92444
   593   3   -11.77333    -7.84889     3.92444
   594   1    -7.84889    -7.84889     3.92444
   595   1    -3.92444    -7.84889     3.92444
   596   2     0.00000    -7.84889     3.92444
   597   3     3.92444    -7.84889     3.92444
   598   2    11.77333    -7.84889     3.92444
   599   3    15.69777    -7.84889     3.92444
   600   1    19.62221    -7.84889     3.92444
   601   2   -23.54666    -3.92444     3.92444
   602   2   -19.62221    -3.92444     3.92444
   603   1   -15.69777    -3.92444     3.92444
   604   3   -11.77333    -3.92444     3.92444
   605   1    -7.84889    -3.92444     3.92444
   606   1    -3.92444    -3.92444     3.92444
   607   3     0.00000    -3.92444     3.92444
   608   2     3.92444    -3.92444     3.92444
   609   3     7.84889    -3.92444     3.92444
   610   2    11.77333    -3.92444     3.92444
   611   2    15.69777    -3.92444     3.92444
   612   2    19.62221    -3.92444     3.92444
   613   2    23.54666    -3.92444     3.92444
   614   1   -23.54666     0.00000     3.92444
   615   3   -19.62221     0.00000     3.92444
   616   3    -7.84889     0.00000     3.92444
   617   1    -3.92444     0.00000     3.92444
   618   2     0.00000     0.00000     3.92444
   619   2     3.92444     0.00000     3.92444
   620   2     7.84889     0.00000     3.92444
   621   2    11.77333     0.00000     3.92444
   622   3    15.69777     0.00000     3.92444
   623   2    19.62221     0.00000     3.92444
   624   1    23.54666     0.00000     3.92444
   625   2   -23.54666     3.92444     3.92444
   626   1   -19.62221     3.92444     3.92444
   627   1   -15.69777     3.92444     3.92444
   628   2   -11.77333     3.92444     3.92444
   629   2    -7.84889     3.92444     3.92444
   630   2    -3.92444     3.92444     3.92444
   631   2     0.00000     3.92444     3.92444
   632   3     3.92444     3.92444     3.92444
   633   1     7.84889     3.92444     3.92444
   634   2    11.77333     3.92444     3.92444