4121
 Atoms. Timestep: 4193
1 -0.546721 -7.25262 -22.1884
2 -3.90729 -3.89479 -22.8859
2 0.0202087 -3.80604 -22.8816
2 3.78298 -3.81767 -22.8361
1 -7.63386 0.030443 -22.7329
2 -3.45763 0.0990557 -23.062
2 0.145672 -0.388369 -23.0623
2 3.57447 0.0587573 -22.9575
3 7.2047 0.231556 -22.6442
1 -3.83717 4.03616 -22.6215
1 0.00553476 4.06653 -22.7566
1 3.56996 3.66035 -22.7327
1 0.0972925 7.32215 -22.5401
2 -7.55405 -11.4122 -18.9222
1 -0.0402281 -11.8395 -19.2714
3 3.68542 -11.521 -19.0737
2 7.66412 -11.2542 -19.1429
3 -11.3554 -7.72666 -18.9603
3 -7.75703 -7.58741 -18.5955
1 -4.16755 -7.63541 -19.0157
2 0.0376578 -7.46371 -18.8156
1 3.56929 -7.78732 -19.003
2 7.54764 -7.74949 -18.893
3 11.1896 -7.69407 -18.9357
1 -11.6583 -4.04748 -19.1929
3 -7.5207 -3.7152 -18.8928
2 -3.67744 -3.89972 -18.9187
1 0.147026 -3.70522 -19.0765
2 3.78794 -3.59101 -19.0848
3 7.61066 -3.81745 -19.0969
2 11.5028 -4.15519 -19.1609
3 -11.4162 0.172074 -19.0182
3 -7.71897 -0.00603284 -19.0303
2 -3.7592 0.0246012 -19.0701
3 -0.0764843 -0.0486789 -19.0197
2 3.74223 -0.179478 -18.8642
2 7.51558 0.0122541 -18.963
2 11.5697 -0.00634605 -19.3047
3 -11.4111 3.90094 -18.9034
1 -7.70653 3.90655 -19.113
3 -3.6608 3.77469 -19.0702
2 -0.00985755 3.78445 -18.9417
2 3.75438 3.82238 -19.1461
2 7.72871 4.03753 -19.2254
2 11.5453 3.99664 -19.1618
2 -11.4571 7.84046 -18.912
3 -7.43535 7.63792 -19.0049
3 -3.86272 7.76035 -19.0305
3 -0.0382706 7.73892 -18.9861
3 3.89807 7.86801 -18.9552
3 7.65428 7.78091 -18.7837
3 11.5624 7.79257 -18.8399
2 -7.43163 11.4527 -18.7294
1 -3.70005 11.3797 -18.8023
2 0.10536 11.635 -18.8944
1 4.0158 11.6922 -18.9944
3 8.11604 11.5286 -19.0063
3 -7.64391 -14.9969 -14.9202
1 -3.7025 -15.4918 -15.327
3 -0.0165798 -15.1057 -15.1424
3 3.99093 -15.1807 -15.2187
3 7.73709 -14.9731 -15.2657
2 -11.6297 -11.3543 -15.2222
1 -3.62377 -11.273 -15.0514
2 0.0629325 -11.4861 -15.221
2 3.84673 -11.1289 -15.1459
2 7.58671 -11.4232 -15.2457
1 11.5962 -11.5834 -15.5121
3 -14.9331 -7.58469 -15.0418
1 -11.3795 -7.67791 -15.1114
1 -7.80547 -7.95754 -15.2683
2 -3.82432 -7.60314 -15.0404
1 -0.101069 -7.52992 -15.115
1 3.74156 -7.58264 -15.153
1 7.50024 -7.48358 -15.3107
1 11.3183 -7.62768 -15.2969
2 15.0137 -7.76386 -15.1797
1 -15.2191 -4.02124 -15.1536
2 -11.5831 -3.91978 -15.0323
3 -7.65179 -3.80676 -15.1115
3 -3.78343 -3.69763 -15.1075
2 0.0982698 -3.803 -15.1418
1 3.84182 -3.74801 -15.1643
3 7.54282 -3.64313 -15.2782
2 11.4812 -3.62821 -15.3428
1 15.3423 -3.75274 -15.4043
3 -15.2499 0.00635225 -15.0407
2 -11.3049 0.0849674 -15.2422
3 -7.67815 0.179438 -15.1778
1 -3.72074 -0.0235276 -14.9783
1 0.0489471 0.0536193 -15.1667
1 3.78409 0.0513774 -15.322
2 7.63685 0.0799038 -15.3259
1 11.5676 0.0421286 -15.3483
2 15.2037 0.0552829 -15.4031
1 -15.2849 3.77194 -15.1995
2 -11.6026 3.92099 -15.2535
2 -7.44913 3.85856 -15.2493
2 -3.88379 3.9543 -15.1054
2 0.0887638 3.85888 -15.2236
3 3.89421 3.80813 -15.2106
2 7.84019 3.89089 -15.4349
1 11.5307 3.92323 -15.4497
2 15.25 3.91383 -15.2724
2 -15.1525 7.47137 -15.1403
2 -11.5153 7.6918 -15.1974
2 -7.48347 7.61862 -15.2023
1 -3.78862 7.71891 -15.0564
2 0.197337 7.73104 -15.3206
1 3.9554 7.62194 -15.1308
1 7.75299 7.67238 -15.176
1 11.5702 7.75823 -15.2919
1 15.5577 8.06691 -15.3732
3 -11.4107 11.4823 -15.261
3 -7.59113 11.4853 -15.211
2 -3.72297 11.476 -15.1952
1 3.99291 11.5071 -15.3759
2 7.91843 11.5244 -15.2057
1 11.749 11.6357 -15.5054
3 -7.68239 15.2283 -15.0195
3 0.0683003 15.2525 -15.369
3 3.97876 15.3539 -15.382
1 8.02365 15.1837 -15.1938
2 -8.21219 -19.1115 -11.619
3 -3.77838 -18.9049 -11.3102
2 -0.0869738 -19.0561 -11.2787
2 3.94475 -18.8994 -11.3701
2 7.75227 -18.736 -11.5776
2 -11.3599 -15.1178 -11.285
1 -7.61064 -15.3516 -11.3671
1 -3.74454 -15.2774 -11.4081
3 0.0989157 -15.1144 -11.3645
2 3.90652 -15.0729 -11.4918
3 7.52006 -15.126 -11.4526
1 11.3481 -15.2392 -11.3653
2 -15.1065 -11.3267 -11.4393
2 -11.5076 -11.484 -11.4596
1 -7.68334 -11.3498 -11.2555
2 -3.87545 -11.3568 -11.5056
1 0.0458066 -11.3892 -11.4658
2 3.70712 -11.3187 -11.3988
1 7.60086 -11.4931 -11.397
2 11.4462 -11.47 -11.3976
1 15.1202 -11.3575 -11.4516
3 -18.7392 -7.56953 -11.3673
2 -15.2713 -7.66607 -11.3689
1 -11.4796 -7.71106 -11.4445
3 -7.68499 -7.74603 -11.365
1 -3.90096 -7.66629 -11.4507
2 -0.180024 -7.53376 -11.419
3 3.74958 -7.47365 -11.4652
1 7.48542 -7.49246 -11.4341
1 11.3367 -7.60008 -11.4374
1 15.1159 -7.64313 -11.5936
1 18.6658 -7.48686 -11.5506
2 -18.9651 -3.75633 -11.607
2 -15.1936 -3.85416 -11.3648
2 -11.3853 -3.91822 -11.2276
2 -7.7608 -3.70601 -11.3423
2 -3.80114 -3.79433 -11.3112
3 0.0122423 -3.80994 -11.3426
2 3.83045 -3.79221 -11.3587
2 7.73654 -3.74431 -11.4933
2 11.3699 -3.69499 -11.3959
2 15.2221 -3.59409 -11.5363
3 18.7655 -3.76568 -11.526
3 -19.083 0.0227364 -11.3316
1 -15.1235 0.0342861 -11.4754
2 -11.3688 -0.0106228 -11.3185
2 -7.45496 0.0942094 -11.3475
1 -3.76092 0.00192862 -11.421
2 0.0270767 -0.0768094 -11.302
2 3.83673 0.0166381 -11.2941
1 7.62648 -0.0274152 -11.3342
2 11.2941 0.225849 -11.3382
3 15.2808 0.0333913 -11.5463
2 18.9149 -0.0976611 -11.4385
1 -19.0714 3.83625 -11.2783
3 -15.2542 3.92136 -11.4875
3 -11.4252 3.83375 -11.3953
2 -7.49728 3.94103 -11.5807
2 -3.78822 3.86638 -11.3715
3 -0.0734176 3.79692 -11.3377
2 3.86689 3.79977 -11.4822
2 7.73006 3.71995 -11.587
3 11.5869 3.89001 -11.5037
2 15.3925 3.87127 -11.5324
2 19.0233 3.91747 -11.5016
2 -18.9815 7.56246 -11.5535
1 -15.2673 7.62705 -11.3204
2 -11.4284 7.57444 -11.3881
2 -7.58501 7.77692 -11.4311
3 -3.74272 7.75778 -11.3596
2 0.098896 7.75606 -11.5469
2 3.79523 7.77752 -11.5869
3 7.76544 7.82697 -11.4287
3 11.381 7.70632 -11.5347
3 15.2036 7.67248 -11.4907
1 19.1032 7.53032 -11.3677
2 -15.3243 11.4822 -11.4194
3 -11.5175 11.5326 -11.3618
2 -7.62933 11.5027 -11.3063
2 -3.63037 11.6415 -11.4181
3 0.211142 11.3924 -11.5294
1 4.00991 11.4856 -11.548
3 7.73376 11.4442 -11.3991
2 11.381 11.4474 -11.3471
1 15.6303 11.8036 -11.9382
3 -11.3341 15.2857 -11.4203
1 -7.56238 15.3235 -11.5018
1 -3.5493 15.4466 -11.539
2 0.178361 15.2588 -11.6381
1 3.98497 15.2165 -11.6087
3 7.77375 15.3263 -11.5082
3 11.6454 15.2431 -11.6019
2 -7.74716 18.8258 -11.5966
2 -0.0775291 18.9137 -11.6518
3 3.91187 18.871 -11.5208
2 7.83057 18.7931 -11.2561
3 0.130819 -22.6788 -7.26298
2 -7.70925 -19.0165 -7.539
1 -3.81918 -19.235 -7.44006
2 -0.0834189 -18.7635 -7.4442
2 3.85885 -18.9995 -7.76299
2 7.43975 -18.9768 -7.71983
2 11.3763 -19.0068 -7.83434
3 -15.1514 -15.1099 -7.46909
2 -11.488 -15.3113 -7.53951
2 -7.48851 -15.2996 -7.64566
1 -3.77947 -15.2863 -7.52445
3 0.0557433 -15.107 -7.59417
2 7.72309 -15.1459 -7.72894
2 11.1559 -15.3289 -7.60086
1 15.3011 -15.307 -7.7813
1 -18.8552 -11.2642 -7.82393
1 -15.0424 -11.361 -7.66795
2 -11.2936 -11.3965 -7.54063
1 -3.6884 -11.4013 -7.67804
1 0.0274292 -11.3809 -7.57501
1 3.86327 -11.425 -7.56497
2 7.56833 -11.1371 -7.4288
2 11.3273 -11.4947 -7.59935
1 15.1469 -11.4242 -7.61214
1 18.7241 -11.3469 -7.77688
2 -15.2064 -7.61682 -7.49022
2 -11.4345 -7.64948 -7.7392
2 -7.71383 -7.41291 -7.66809
3 -3.98769 -7.85502 -7.65538
1 0.0794023 -7.64891 -7.59572
1 3.76259 -7.64774 -7.50173
1 7.50533 -7.54065 -7.48484
2 11.4239 -7.5685 -7.58343
1 15.0157 -7.46302 -7.64868
3 18.7004 -7.63559 -7.74653
1 -19.1036 -3.67109 -7.56312
1 -15.1662 -3.89597 -7.49271
2 -11.3658 -3.96862 -7.73147
1 -7.42638 -3.75565 -7.52769
2 -3.82619 -3.73853 -7.55264
2 0.010457 -3.89743 -7.64324
2 3.78858 -3.66835 -7.62819
3 7.5595 -3.81616 -7.65633
2 11.4892 -3.85511 -7.58986
3 15.1837 -3.73119 -7.63029
3 18.8809 -3.79665 -7.78423
2 -23.1642 0.102081 -7.82816
2 -19.156 -0.164733 -7.42287
3 -15.235 -0.0156642 -7.63495
3 -11.2191 0.109959 -7.61347
1 -3.81331 0.0656732 -7.55052
3 -0.082034 0.105 -7.56999
2 7.56767 -0.0974009 -7.61929
3 11.2742 0.0290425 -7.60988
1 15.3871 9.31852e-05 -7.59042
3 18.7305 -0.0648023 -7.79798
3 22.5109 -0.0809156 -7.77372
2 -15.3181 3.86459 -7.68242
2 -11.3801 3.72592 -7.66155
3 -7.49367 3.76941 -7.65202
1 -3.6871 3.91232 -7.62176
3 0.0382857 3.87076 -7.58366
2 3.77289 3.89807 -7.70366
3 7.58062 3.86822 -7.76784
1 11.3729 3.6838 -7.86938
2 15.2551 3.8267 -7.68248
2 19.0528 3.87897 -7.57246
2 -19.2068 7.63514 -7.67381
3 -15.2886 7.69012 -7.66499
2 -11.491 7.7554 -7.62185
2 -7.54889 7.62255 -7.43861
2 -3.77091 7.67395 -7.60952
1 -0.01958 7.69806 -7.61683
2 3.83132 7.62925 -7.57951
2 7.58517 7.60758 -7.75285
1 11.4997 7.61214 -7.684
2 15.2193 7.40935 -7.59798
2 18.8212 7.46012 -7.48652
1 -19.0386 11.4837 -7.8462
1 -15.2125 11.5511 -7.66027
3 -11.5436 11.546 -7.62957
2 -7.67994 11.4427 -7.68533
2 -3.80676 11.4007 -7.74182
2 0.0705729 11.4747 -7.79225
2 3.93549 11.3935 -7.66688
2 7.62687 11.4444 -7.55728
2 11.6165 11.5847 -7.56244
1 15.3588 11.4883 -7.67615
2 18.9558 11.392 -8.07933
1 -15.1328 15.2796 -8.16118
1 -11.3836 15.2722 -7.699
3 -7.47289 15.3108 -7.488
3 -3.613 15.262 -7.56634
3 0.0771593 15.2347 -7.72382
2 3.74507 15.1073 -7.72615
2 7.73411 15.1117 -7.63458
2 11.6158 15.2625 -7.59603
1 15.468 15.2862 -8.30972
3 -11.2615 19.0317 -7.69573
2 -7.51137 19.1972 -7.50672
1 -3.44935 18.8926 -7.57784
1 3.82834 18.9711 -7.69486
2 7.5469 18.912 -7.56884
1 11.6211 18.8796 -7.58608
2 -0.0385416 22.6677 -7.57741
2 -3.44207 -22.6234 -3.43303
2 0.453239 -23.8585 -4.03193
3 3.88337 -22.7173 -3.76438
1 -11.5837 -19.1083 -4.02737
1 -7.3502 -19.3166 -3.70782
1 -3.82373 -18.8474 -3.74095
1 0.142392 -18.8455 -3.74596
2 3.77534 -19.0755 -3.88699
1 7.77432 -19.0842 -3.90041
3 11.5737 -18.8265 -3.58474
2 -11.3878 -15.1286 -3.85603
2 -7.6422 -15.3182 -3.60653
2 -3.823 -15.1105 -3.6647
1 0.155121 -15.0543 -3.6994
2 3.92942 -15.3108 -4.02188
2 7.53495 -15.3566 -3.90977
3 11.409 -15.0927 -3.72683
2 15.0207 -15.1374 -3.60856
2 -18.7013 -11.6555 -3.55319
3 -15.1306 -11.4719 -3.72214
2 -11.4861 -11.4776 -3.7343
2 -7.53023 -11.3897 -3.75638
2 -3.81223 -11.452 -3.88918
1 0.101853 -11.5233 -3.85512
2 3.80551 -11.3174 -3.53896
2 11.3259 -11.124 -3.7338
1 15.0501 -11.3661 -3.65201
2 18.7975 -11.0517 -3.80299
3 -15.2085 -7.72893 -3.77575
3 -11.4301 -7.58368 -3.86652
2 -7.59403 -7.66826 -3.7696
2 -3.8612 -7.56923 -3.71676
2 -0.0952648 -7.84095 -3.73725
2 3.78712 -7.59522 -3.57894
3 7.52271 -7.53839 -3.78589
2 11.2942 -7.40741 -3.75391
1 15.1202 -7.36013 -3.80727
1 18.762 -7.45328 -3.77763
3 -22.551 -3.87021 -3.56454
3 -18.9134 -3.87882 -3.73178
1 -15.2227 -3.88924 -3.73582
2 -11.5504 -3.74674 -3.79374
2 -7.63417 -3.67651 -3.80978
3 -3.79908 -3.8196 -3.82356
1 0.0293353 -3.6595 -3.76021
1 3.91628 -3.74686 -3.9697
1 7.57069 -3.70053 -3.85141
1 11.3169 -3.71654 -3.64823
3 15.1866 -3.8625 -3.82626
3 22.4493 -3.77195 -4.15629
2 -22.5753 -0.0567393 -3.56569
3 -19.0308 -0.0628696 -3.89676
2 -15.18 -0.0114516 -3.89524
2 -11.2579 0.139418 -3.81232
2 -7.64369 0.0809277 -3.93306
2 -3.73706 -0.123821 -3.78799
2 -0.0380991 0.107836 -3.85421
2 7.61659 0.00084061 -3.84365
2 11.2455 0.118164 -3.76014
2 15.0818 0.0336624 -3.98246
3 18.8679 -0.12253 -3.76335
2 -22.8432 3.7252 -3.67669
1 -19.0598 3.81956 -3.98454
2 -15.2624 3.84236 -3.83601
2 -11.4037 3.7427 -3.51838
1 -3.66901 3.7815 -3.64509
2 0.0872709 3.98939 -3.87591
3 3.7574 3.99415 -3.81839
1 7.40266 3.86647 -3.84715
3 11.3216 3.72901 -3.73852
2 15.1694 3.7892 -3.87598
2 22.818 3.68228 -4.20475
3 -18.9747 7.5817 -3.88523
2 -15.2764 7.84896 -3.80164
2 -11.4627 7.69126 -3.9208
2 -7.61918 7.66196 -3.87703
2 -3.7612 7.67266 -3.74328
2 0.0741632 7.71094 -3.93344
2 3.88755 7.63519 -3.86468
2 7.48035 7.58658 -3.79285
2 11.3987 7.46018 -3.8292
1 15.1066 7.51828 -3.76705
2 18.9933 7.71445 -3.6582
1 -19.3092 11.632 -4.02353
2 -11.4512 11.3766 -4.0159
1 -7.50591 11.4374 -3.87483
3 -3.77985 11.5418 -3.92394
3 0.119709 11.4293 -3.95014
2 3.82202 11.406 -3.8608
3 7.55535 11.5157 -3.82408
2 11.6227 11.4301 -3.68102
2 15.4583 11.4543 -3.77126
2 18.9339 11.6878 -3.78138
2 -15.2811 15.1767 -3.76691
1 -11.3006 15.12 -3.72754
2 -7.40868 15.1874 -3.89928
1 -3.52122 15.2384 -3.83606
2 0.116075 15.1801 -3.77419
3 3.73789 15.0844 -3.90608
2 7.5863 15.2314 -3.69897
2 11.5317 15.3318 -3.53058
2 15.5443 15.631 -3.96912
2 -11.2243 18.9985 -3.871
2 -7.51932 19.1398 -3.88361
3 -3.67537 18.8843 -3.86988
3 0.12556 18.9409 -3.78068
2 3.83606 19.0389 -3.94888
1 7.58125 18.9541 -3.763
2 11.5368 19.1015 -3.94477
2 -3.81488 22.5602 -3.93364
1 0.165641 22.6661 -3.88901
1 3.91264 22.7332 -3.92599
3 -7.33441 -22.7711 -0.183757
1 -3.00557 -23.0403 -0.335046
1 -0.253365 -22.7845 0.0812714
2 3.62625 -22.7643 -0.164445
2 7.59834 -22.5547 0.0937957
2 -11.3547 -18.9793 -0.00686059
3 -7.68473 -19.0406 -0.085675
2 -3.7403 -18.8314 0.108732
3 -0.0636903 -18.9573 0.0168722
2 3.86175 -18.9308 0.132037
1 7.7891 -19.0705 0.0398317
2 11.3938 -19.0786 0.0677427
2 -15.1969 -15.328 0.0697966
3 -11.2458 -15.2247 0.0874182
2 -7.62302 -15.2204 0.181965
1 -3.783 -15.1272 0.048202
2 -0.00554653 -15.1813 0.108488
2 3.83624 -15.1943 -0.0472421
2 7.67766 -15.1511 0.0783976
2 11.3139 -15.1647 0.112084
3 15.1429 -14.9296 -0.0135383
2 -18.7884 -11.5262 0.0384
2 -15.2404 -11.4939 0.044705
2 -11.4603 -11.4948 0.163541
3 -7.58246 -11.4551 0.112171
2 -3.82298 -11.26 -0.0147163
3 0.137363 -11.2762 0.0418275
2 3.77418 -11.2816 0.266082
3 11.4352 -11.2874 -0.0662987
2 14.993 -11.4007 -0.0743997
1 19.1001 -11.4601 -0.237812
2 -22.579 -7.62571 -0.0881502
1 -19.054 -7.70706 -0.0818908
2 -15.102 -7.56863 0.0330427
3 -11.4533 -7.73612 0.00473933
2 -7.70236 -7.77197 0.0553384
2 -3.7364 -7.65145 0.195833
2 0.00549425 -7.73519 -0.00964509
1 3.99762 -7.52077 0.0268891
3 7.43186 -7.44575 -0.0246084
2 11.339 -7.50428 -0.00432783
2 15.1919 -7.44448 -0.023338
2 18.947 -7.2679 0.0844328
2 22.538 -7.3969 0.0584206
2 -22.4706 -3.81194 0.105574
3 -18.9252 -3.90268 0.149883
2 -15.0659 -3.83884 0.0632333
1 -11.414 -3.75564 0.120821
2 -7.52033 -3.84715 0.0386636
1 -3.75372 -3.9146 0.0956991
2 -0.0289545 -3.80289 0.089215
3 3.79102 -3.91224 -0.0443254
1 11.2411 -3.71554 -0.0891028
1 15.2073 -3.85419 0.0916054
2 18.9712 -3.8124 0.0463985
2 22.6285 -3.72414 0.0979164
3 -22.7122 -0.190616 0.212067
3 -19.0035 0.013678 -0.0263449
3 -15.1897 0.0147614 0.124059
2 -11.3169 -0.0261442 0.0124038
2 -7.57111 0.16652 -0.11122
1 -3.79189 -0.119822 0.121026
1 -0.06721 -0.0397373 0.0695874
3 3.643 0.0154866 0.0221247
1 7.49093 0.0657188 0.0161024
1 11.3741 0.146043 0.0167884
1 15.0676 -0.177843 0.0635692
2 19.0034 -0.170672 0.216606
2 23.8003 1.40688 -0.180894
1 -22.9584 3.63188 0.220778
2 -19.0463 3.68883 0.162868
3 -15.2222 3.84113 0.0966041
3 -11.3093 3.8006 -0.143931
3 -7.56855 3.80866 -0.0346578
1 -3.62509 3.80239 0.075246
2 -0.0326538 3.82296 0.0487901
2 7.58751 4.00471 -0.0836986
2 11.4253 3.74048 0.0116232
2 15.0905 3.6387 0.0174372
2 18.7931 3.69317 0.0307549
3 22.4459 3.68256 0.132544
2 -22.9572 7.54124 0.00741408
2 -15.0738 7.47642 -0.0116777
1 -11.3691 7.54038 0.086773
2 -7.63055 7.6664 0.109204
1 -3.78887 7.68055 0.106111
2 0.0402918 7.70266 -0.114152
2 3.79644 7.49897 -0.0366087
2 7.72419 7.71622 0.0401234
3 11.2946 7.57165 -0.00532036
2 15.2701 7.57718 0.0219944
1 19.071 7.4759 0.0408339
2 22.7891 6.83902 -0.350704
3 -18.9725 11.4102 -0.112902
3 -15.0722 11.4275 0.036567
2 -11.2214 11.2884 -0.0561585
1 -7.65651 11.5006 -0.0182362
2 -3.78106 11.4228 0.2034
2 0.0932328 11.419 0.122552
1 3.78831 11.4117 -0.00885139
3 7.63603 11.4664 -0.0165525
3 11.5557 11.2926 -0.0410068
1 15.3663 11.4453 0.160992
2 18.9014 11.3272 0.197477
3 -15.1572 15.104 0.0867317
2 -11.4652 15.1527 -0.00838951
2 -7.61037 15.196 -0.0891266
3 -3.74226 15.2296 0.0505615
2 0.00620504 15.2516 0.0894831
2 3.77405 15.1046 -0.0103756
2 7.64275 15.1562 0.000401229
3 11.4065 15.1286 0.036168
2 15.3901 15.245 0.218748
3 -11.3 18.9759 0.0425786
1 -7.6314 18.731 -0.0517417
1 -3.4302 19.2523 -0.0135163
3 0.0770038 18.8723 -0.0143141
2 3.70765 19.012 -0.102401
2 7.63085 18.6215 -0.294126
2 11.5061 19.0295 0.228047
2 -7.61336 22.5203 0.414564
2 -2.99036 22.3213 0.153246
2 -0.0850765 22.5448 0.0730669
1 3.86665 22.5365 -0.0288918
2 7.57232 22.6944 0.38005
3 -3.77423 -22.7373 3.8745
3 0.108558 -22.6655 3.77425
1 3.91745 -22.6444 3.73701
2 -11.5745 -19.0148 3.78788
3 -7.55508 -19.2576 3.65579
1 -3.67325 -18.9225 3.82224
2 -0.0823884 -19.1183 3.84199
2 3.96451 -18.831 3.77348
1 7.76238 -18.9115 3.87927
3 11.1796 -18.7621 3.85732
1 -15.198 -15.3117 3.91678
3 -11.4638 -15.4114 3.93062
2 -7.6309 -15.2254 3.81239
3 -3.80147 -15.303 3.91247
2 0.0561715 -15.3384 3.87994
2 3.83434 -15.1425 3.88469
3 7.56491 -15.1062 3.71456
1 11.3523 -15.0221 3.82045
1 15.1195 -15.2746 4.03084
2 -18.9621 -11.5613 3.84324
3 -15.204 -11.6576 3.90316
2 -11.5048 -11.4366 3.82114
2 -7.72192 -11.3741 3.7893
3 -3.78502 -11.3746 3.84678
1 0.133778 -11.3974 3.92836
3 3.82677 -11.3091 3.97462
1 7.68078 -11.272 3.74261
3 15.0828 -11.3645 3.70182
2 19.4317 -11.6234 4.07046
1 -18.9781 -7.96556 4.08445
1 -15.2872 -7.65798 3.94339
3 -11.4589 -7.59328 3.84169
1 -7.61742 -7.60138 3.83656
1 -3.7574 -7.60725 4.02633
2 0.137144 -7.63003 3.79266
3 3.78024 -7.6258 3.73271
2 11.2284 -7.45722 3.59221
3 15.0237 -7.63837 3.70278
1 19.2204 -7.5545 3.89785
2 -22.6544 -3.88865 3.83635
2 -19.0189 -3.95155 4.05399
1 -15.2471 -3.77046 3.96668
3 -11.4616 -3.73325 3.98767
1 -7.76661 -3.90733 3.75864
1 -3.91434 -3.87163 3.76523
3 -0.0806127 -3.89753 3.88623
2 3.73554 -3.82806 3.94012
3 7.60115 -3.73158 3.79414
2 11.3752 -3.66619 3.71167
2 15.0108 -3.82236 3.80028
2 18.862 -3.64985 3.92468
2 22.5905 -3.76948 4.02887
1 -22.825 -0.131496 3.94936
3 -18.911 -0.0326303 3.88967
3 -7.81904 0.0144693 3.89993
1 -3.66834 0.150026 4.08311
2 -0.146794 -0.141223 3.97546
2 3.6168 -0.00400648 3.82374
2 7.38358 0.0924652 3.8354
2 11.4321 -0.157676 3.90675
3 15.1605 -0.0936138 3.92791
2 18.6633 -0.239399 3.88983
1 22.4433 0.109959 3.78783
2 -22.9604 4.00742 3.59196
1 -19.0395 3.86206 3.76464
1 -15.1982 3.74754 3.70907
2 -11.3506 3.66102 3.71396
2 -7.68404 3.61587 4.05187
2 -3.79568 3.75362 3.81311
2 -0.135433 3.87328 3.91486
3 3.82365 3.71259 3.78169
1 7.46418 3.80435 3.65701
2 11.3852 3.68689 3.80673
2 15.027 3.65138 3.95221
2 18.9582 3.89969 3.91293
2 22.9204 3.97318 3.86498
3 -19.0149 7.78694 3.77176
1 -15.1826 7.66634 3.82528
1 -11.3384 7.65692 4.04759
1 -7.44112 7.55696 3.95108
2 -3.87255 7.66611 3.75296
1 -0.031315 7.54465 3.85137
2 3.67348 7.35699 3.72788
2 7.48743 7.58437 3.80467
1 11.3409 7.53623 3.85885
3 15.2278 7.54706 4.00289
1 19.0311 7.49805 3.97484
2 -18.7569 11.5422 3.7112
3 -15.1984 11.2417 3.76543
3 -11.3851 11.3807 3.81518
2 -7.69713 11.4572 3.91117
1 -0.167178 11.315 3.91155
2 3.8327 11.3452 3.86011
1 7.41039 11.2204 3.81306
3 11.322 11.1781 3.75933
2 15.2676 11.492 3.93888
2 19.1135 11.5102 3.84414
2 -15.419 15.1156 4.00511
3 -11.6283 15.0968 3.72799
1 -7.75639 14.6428 3.47542
1 -3.86296 15.1092 3.96838
3 0.0836284 15.3263 3.85232
2 3.75636 15.155 3.85301
2 7.64183 15.1133 3.80347
3 11.5102 15.1232 3.755
2 15.4739 15.5677 3.72807
2 -11.8507 19.0599 4.0439
2 -7.58821 18.6804 3.78194
3 -3.84774 18.9114 3.79098
1 0.0574424 19.2101 3.99234
3 3.95871 19.0267 3.80329
3 7.67979 18.9357 3.94625
2 -3.75105 22.8156 3.58856
1 -0.00187753 22.2016 4.5575
1 3.71185 22.8255 3.65059
3 0.0230865 -22.7445 7.41862
2 -11.4509 -19.0227 7.76043
1 -7.45039 -19.2348 7.3498
2 -3.74892 -19.0747 7.6405
2 -0.0147076 -19.0927 7.75297
3 3.79158 -19.0249 7.90351
2 7.71197 -18.8233 7.86219
1 11.7379 -17.6123 8.13766
1 -15.2123 -15.2983 7.82089
2 -11.403 -15.3671 7.86023
3 -7.658 -15.242 7.66229
2 -3.75568 -15.3037 7.60053
1 0.167779 -15.2726 7.63181
3 3.7367 -15.3755 7.59204
3 7.60122 -15.1543 7.68354
2 9.55366 -13.2044 7.70499
2 -18.6664 -11.6322 7.70605
2 -15.1083 -11.5875 7.6611
3 -11.4292 -11.4812 7.74699
2 -7.58544 -11.5774 7.55377
3 -3.85548 -11.5284 7.7793
2 -0.136728 -11.3396 7.60198
2 3.81465 -11.3519 7.51813
2 7.5953 -11.4421 7.56188
3 15.092 -11.4853 7.63442
3 18.8512 -11.3647 7.64355
2 -18.9192 -7.95172 7.82633
1 -15.1912 -7.7214 7.60087
3 -11.3565 -7.52901 7.70807
2 -7.69282 -7.70843 7.57008
3 -3.9717 -7.753 7.72872
3 3.78046 -7.49557 7.64309
2 7.66735 -7.70177 7.482
1 11.2215 -7.69022 7.65578
1 15.0928 -7.63065 7.51297
2 18.9318 -7.63523 7.51541
2 -18.8925 -3.8859 7.62608
3 -15.1371 -3.76684 7.73156
3 -11.513 -3.79001 7.64097
3 -7.66141 -3.83003 7.72592
2 -3.90406 -3.81733 7.77696
3 -0.18307 -3.99151 7.57616
2 3.62426 -3.91144 7.55661
1 7.53511 -3.80739 7.64947
3 11.2572 -3.83941 7.57708
1 15.0409 -3.70621 7.58098
2 18.744 -3.81765 7.58988
1 -23.1716 0.244444 6.54556
3 -18.8917 -0.0474814 7.53425
3 -11.4163 -0.0326667 7.6328
3 -7.65563 -0.0420162 7.62086
1 -3.72131 -0.0597748 7.5165
3 -0.057943 -0.102228 7.74941
3 3.68886 -0.0556845 7.71119
1 7.44736 0.050031 7.50961
2 11.2342 0.0192744 7.6847
3 15.0512 -0.0543496 7.60591
2 18.8148 -0.162917 7.74916
3 22.5533 0.00202676 7.48918
2 -19.1436 3.82871 7.72755
1 -15.2735 3.83667 7.54831
1 -11.4353 3.7369 7.65417
2 -7.71118 3.73178 7.73985
3 -3.77781 3.83799 7.79262
2 3.53896 3.645 7.67246
3 7.49466 3.7655 7.59875
3 11.1789 3.6376 7.67836
2 15.0232 3.58751 7.75161
3 18.8878 3.75548 7.72918
3 -18.8514 7.70661 7.56613
1 -15.1234 7.69762 7.65915
2 -11.336 7.58593 7.63646
1 -7.64714 7.61168 7.76818
1 -3.93145 7.61321 7.72526
2 -0.197649 7.55664 7.78216
2 3.62001 7.49566 7.58412
2 7.50948 7.56962 7.564
2 11.1877 7.52151 7.65772
2 15.0496 7.6461 7.69541
1 18.7823 7.58523 7.69299
2 -18.834 11.7414 7.72729
3 -15.1205 11.5662 7.54903
2 -11.4647 11.5797 7.38074
2 -7.67344 11.4212 7.77044
3 -3.79382 11.4252 7.64287
1 -0.112226 11.3712 7.54907
2 3.85823 11.2633 7.63997
3 7.57347 11.0896 7.48893
2 15.2316 11.1694 7.60508
3 18.6851 11.1275 7.57949
1 -14.8332 14.4742 7.53889
1 -7.62279 15.2512 7.80575
2 -3.77582 15.3157 7.99806
1 0.151803 15.0327 7.73981
1 7.72239 14.9729 7.50524
1 11.365 15.0795 7.52112
2 15.267 15.0468 7.64551
2 -11.3302 18.5327 8.00298
3 -7.36428 18.7575 7.55122
2 -3.54744 18.9071 7.73034
2 0.0900927 18.8769 7.55582
2 3.59467 18.7663 7.79592
1 11.624 18.72 7.41161
2 0.269932 22.8938 7.08484
2 -7.70707 -18.9345 11.2496
3 -3.70818 -19.1452 11.5009
2 0.0508695 -19.0511 11.368
1 4.05122 -19.5598 11.8815
3 7.96769 -18.625 11.4054
3 -11.4313 -15.2299 11.2594
3 -7.57146 -15.2643 11.4929
3 -3.82167 -15.2116 11.3602
2 -0.1159 -15.085 11.5099
1 3.76287 -15.336 11.5198
2 7.8061 -15.2151 11.463
1 11.472 -15.0072 11.3323
2 -15.2187 -11.4372 11.5442
1 -11.3355 -11.2672 11.4917
3 -7.60767 -11.4794 11.3775
2 -3.84554 -11.3858 11.5567
2 -0.127478 -11.317 11.3667
2 3.75863 -11.5323 11.3693
2 7.55821 -11.606 11.5036
1 11.4887 -11.4271 11.4252
3 15.0982 -11.4234 11.3482
2 -18.6983 -7.90236 11.0983
1 -15.3133 -7.79262 11.7113
3 -11.426 -7.68837 11.4054
3 -7.65725 -7.75526 11.5163
3 -3.98752 -7.67287 11.3797
3 -0.0693865 -7.67055 11.3683
1 3.78967 -7.69205 11.6164
3 7.37318 -7.49758 11.3626
3 11.357 -7.67871 11.3758
3 15.1446 -7.57119 11.4769
2 18.9097 -7.59985 11.495
1 -18.7704 -3.93153 11.5274
2 -15.1479 -3.79906 11.4811
2 -11.385 -3.93957 11.538
3 -7.57964 -3.92162 11.6103
1 -3.86325 -3.80544 11.3605
1 -0.0718488 -3.82361 11.3953
3 3.63175 -3.92373 11.4636
2 7.54296 -3.75709 11.4054
1 11.3591 -3.77527 11.3853
2 14.9915 -3.8335 11.4179
3 18.6899 -3.82694 11.2522
1 -19.2009 0.0133667 11.5381
2 -15.2979 0.223638 11.4917
2 -11.3889 0.311915 11.5718
3 -3.99857 0.0638733 11.5157
2 -0.099982 0.131483 11.3726
1 3.6971 0.0599223 11.4739
3 7.47805 -0.119309 11.509
3 11.3663 -0.211866 11.3883
1 14.9153 -0.0986635 11.7013
2 19.0118 -0.316681 11.5901
3 -18.9886 3.89369 11.3932
3 -15.1837 3.89883 11.4266
1 -11.3501 3.67549 11.5964
1 -7.49974 3.80461 11.4052
3 -3.95341 3.77023 11.4933
2 0.00783911 3.74834 11.3812
1 3.85398 3.65704 11.6927
3 7.46007 3.66414 11.5415
2 11.2247 3.5599 11.4827
1 15.0608 3.65992 11.4366
2 18.6873 3.81461 11.4238
1 -18.8776 7.88779 11.2896
2 -15.2115 7.73144 11.3993
3 -11.3794 7.53425 11.3767
3 -7.54323 7.65552 11.5699
1 -3.8019 7.6315 11.456
2 0.119287 7.60066 11.4538
2 3.70748 7.43118 11.4978
1 7.51205 7.39454 11.5676
2 11.2298 7.36731 11.3587
2 15.0148 7.32645 11.4876
1 18.7639 7.50771 11.3203
1 -15.1837 11.6457 11.4643
3 -11.4229 11.4204 11.3038
2 -7.69523 11.2516 11.6063
1 -3.66659 11.3 11.4807
2 0.12181 11.2015 11.4791
2 3.97854 11.3096 11.4296
3 7.57352 11.1743 11.4637
2 11.3534 11.3313 11.3989
3 14.9671 11.0344 11.4995
2 -11.1992 14.8785 11.7152
2 -7.39358 15.1254 11.267
1 -3.38481 15.2055 11.6533
1 0.255924 15.0642 11.4232
3 4.06592 15.1453 11.3874
3 7.71433 14.9084 11.3931
1 11.4424 15.0421 11.4214
2 -7.80531 18.9595 11.3469
3 -4.23447 18.8746 11.5258
2 -0.0449771 18.7751 11.338
2 5.74387 19.2026 9.35962
3 7.68351 18.9799 10.8719
2 -7.7284 -15.5146 14.7173
3 -3.70389 -15.3571 15.2216
3 0.00267216 -15.3329 15.2448
1 3.83303 -15.8599 15.1484
1 8.18306 -15.2503 15.485
2 -11.5146 -11.8394 15.3261
3 -7.65491 -11.5307 15.2319
3 -3.83799 -11.491 15.2641
2 -0.0689291 -11.4768 15.3563
2 3.69352 -11.6011 15.1047
3 7.78598 -11.415 15.1313
2 11.5021 -11.247 15.4703
2 -15.5209 -8.59767 15.4179
2 -11.267 -7.75316 15.3546
3 -7.58974 -7.54072 15.3722
1 -3.7328 -7.53195 15.2538
2 -0.107655 -7.48963 15.3511
2 3.59524 -7.68036 15.2112
1 7.55779 -7.69602 15.3042
1 11.2948 -7.65044 15.1538
2 14.9192 -7.72114 15.132
1 -16.1867 -4.17861 16.2238
2 -11.1253 -3.87353 15.1596
2 -7.5894 -3.60319 15.1785
3 -3.97007 -3.86827 15.2366
2 0.0551415 -3.50415 15.3504
3 3.75691 -3.82644 15.1706
2 7.43711 -3.72416 15.3737
1 11.3023 -3.87941 15.254
3 14.9052 -3.87104 15.2316
1 -15.6234 -0.060958 14.3148
2 -11.7858 0.030998 15.347
2 -3.80722 -0.0121431 15.2708
2 -0.0347541 0.0289195 15.2415
1 3.63785 0.00379428 15.2856
3 7.52445 -0.0537867 15.3771
3 11.5022 0.0154127 15.2205
1 14.9164 -0.30385 14.4026
2 -15.6638 3.91525 15.6434
2 -11.4885 3.9141 15.3405
3 -7.61273 3.75365 15.2636
2 -3.70864 3.81716 15.1922
2 -0.124235 3.72858 15.3347
2 3.71173 3.81185 15.2426
3 7.69297 3.65871 15.4639
2 11.4992 3.73246 15.4228
3 -15.1914 7.85448 14.8651
3 -11.4048 7.70236 15.1579
2 -7.55912 7.62101 15.213
1 -3.69705 7.59822 15.2815
1 -0.0913028 7.60528 15.2918
2 3.84246 7.51999 15.3599
3 7.49536 7.48177 15.3832
3 11.2223 7.43307 15.0263
2 14.9956 7.5093 15.1026
2 -11.5543 11.4114 15.2363
1 -7.62612 11.358 15.3626
2 -3.81768 11.1769 15.0794
1 0.0397531 11.4776 15.3587
3 4.05413 11.3367 15.2919
2 7.56899 11.2772 15.246
2 11.4113 11.2309 15.0067
3 -7.66314 14.9768 15.0324
2 -3.9067 15.4825 15.4138
1 0.17209 13.774 17.1455
3 4.18509 15.2944 15.1692
1 8.35922 15.3538 15.5621
2 -7.66182 -11.7324 18.9251
2 -4.02042 -11.9886 19.2362
3 0.178174 -11.6912 18.7098
2 3.70674 -11.7318 18.8378
2 7.57421 -11.5985 18.8562
2 -11.4387 -8.0622 18.911
2 -7.5783 -7.62394 19.2824
2 -3.98545 -7.53203 19.0882
2 -0.200356 -7.4142 18.8866
1 3.77385 -7.82235 19.0558
1 7.44783 -7.66968 18.9793
2 11.1581 -7.4545 18.9739
2 -4.0211 -3.76286 18.9856
2 -0.245722 -3.92115 19.1913
2 3.6723 -3.78607 19.241
2 7.52114 -3.90676 19.2192
3 11.48 -3.75375 18.9192
2 -11.9486 -0.174264 19.3724
1 -7.45756 0.12389 19.2989
3 -3.89997 -0.238482 18.9788
1 -0.124461 0.0173405 19.1917
2 3.65662 0.00187275 19.1973
2 7.61732 -0.130607 19.1422
2 11.5133 -0.135598 19.3354
1 -11.6309 3.92545 19.1476
1 -7.55168 3.93319 19.2145
2 -3.8051 3.7858 18.9908
1 -0.141362 4.00428 19.1095
3 3.79685 3.79487 19.0163
2 7.5031 3.66211 19.0329
2 11.4 5.19527 20.3994
2 -11.4955 7.76633 18.8131
3 -7.5326 7.50125 18.9592
2 -3.75723 7.6841 18.9525
3 -0.0986807 7.74517 19.0458
2 3.66056 7.43364 18.9293
1 7.65012 7.66277 19.1478
3 11.3659 7.43572 18.7669
1 -7.65727 11.3576 18.8584
2 -3.78372 11.4642 18.841
2 3.8671 11.5608 19.1462
3 7.79779 11.5423 18.8828
2 0.170043 -7.83965 23.0595
1 -0.21426 -3.91419 22.7255
2 3.69022 -3.93734 22.8342
1 -7.6222 0.452227 22.2093
3 -3.93068 -0.153769 22.8212
2 -0.0635182 0.0681492 22.9281
1 3.6457 -0.0411674 22.7501
1 7.52472 -0.00114769 22.8344
2 -3.72037 3.79027 22.9312
2 0.0361983 3.7879 22.913
1 3.72256 3.75223 22.7897
1 -0.091703 7.80688 22.8415
2 -6.03733 -5.52737 -22.6537
1 -2.4772 -5.82021 -22.7044
3 1.91006 -5.85225 -22.6054
2 5.53911 -5.81395 -22.6642
1 -5.68518 -1.85712 -22.806
3 -1.92208 -1.96909 -22.9025
1 2.1068 -1.95044 -23.0106
2 5.73127 -1.85712 -22.6743
2 -5.48067 2.13048 -22.6016
2 -1.19124 1.95898 -22.8397
1 1.33825 1.89773 -22.8923
2 5.55472 2.05621 -22.5994
3 -5.5335 5.95159 -22.7216
2 -2.01992 5.80298 -22.5679
2 1.96069 5.66005 -22.8558
2 5.69437 6.1076 -22.64
3 -5.68514 -13.262 -18.6527
3 -1.85171 -13.5929 -18.9114
3 1.94899 -13.2175 -18.7998
1 5.86872 -13.0214 -18.9341
3 -9.27763 -9.59177 -18.8788
2 -2.28177 -9.25236 -18.87
1 1.61956 -9.87244 -19.3786
3 5.65422 -9.5784 -19.0981
3 9.52861 -9.36618 -18.9956
3 -13.3335 -5.9159 -18.8706
1 -9.61581 -5.72327 -18.779
2 -5.77132 -5.60784 -18.7435
2 -2.2223 -6.12172 -19.3321
3 2.03034 -5.55302 -18.9123
2 5.66065 -5.6583 -19.1053
2 9.40222 -5.73333 -19.1628
3 -13.3338 -2.15112 -19.0809
2 -9.5105 -1.91077 -18.8109
1 -5.60252 -1.94049 -18.9533
1 -1.96928 -2.03272 -18.9683
3 5.7995 -1.94242 -19.2025
2 9.41991 -1.97324 -19.3329
1 13.4326 -2.37659 -19.0595
1 -13.2778 1.91537 -19.1164
1 -9.5974 1.95716 -19.0008
1 -5.76247 1.9535 -19.1408
2 -1.80062 1.84772 -18.9864
3 1.99759 1.90262 -19.0012
2 5.6316 1.97378 -18.9692
2 9.52708 1.83669 -19.2378
2 13.2361 2.11892 -19.3085
2 -13.2519 5.70009 -19.0169
2 -9.58002 5.82998 -19.0674
2 -5.6395 5.82359 -19.0007
2 -1.96823 5.8536 -18.989
3 1.98444 5.79937 -18.9646
1 5.70479 5.91951 -19.1474
3 9.61702 5.90897 -18.9827
3 13.5227 6.08957 -18.8886
3 -9.50111 9.65177 -18.69
3 -5.61781 9.59662 -19.0451
3 -1.89792 9.75483 -18.8841
1 1.91625 9.62253 -19.0442
2 5.90512 9.80085 -19.1066
2 9.94589 9.76559 -19.0739
2 -5.71344 13.1938 -18.6739
2 -2.17493 13.2413 -18.9165
2 2.23006 13.4436 -18.8142
3 -5.94412 -17.1008 -15.275
2 -1.77621 -17.0181 -14.9802
1 2.02871 -16.8575 -15.3502
2 5.97133 -16.8165 -15.4341
3 -13.1164 -13.5736 -14.9744
2 -9.59433 -13.2112 -15.1156
2 -5.40198 -13.3909 -15.055
3 -1.84732 -13.1459 -15.2767
2 2.06368 -13.2317 -15.2157
2 5.79107 -13.2618 -15.2797
2 9.61773 -13.0076 -15.3136
2 13.2496 -13.2692 -15.082
3 -13.1525 -9.40284 -15.281
3 -5.53461 -9.68494 -15.0272
3 1.83073 -9.56904 -15.3694
1 5.62636 -9.33967 -15.1615
2 9.51983 -9.47423 -15.2164
2 13.1994 -9.54413 -15.199
3 -17.1294 -5.83787 -15.3368