3894
 Atoms. Timestep: 4193
3 -3.50299 -3.67874 -22.3705
3 0.0628817 -3.64208 -22.3757
2 3.52258 -3.50291 -23.0813
3 -7.24189 -0.0440359 -22.2888
1 -3.34994 -0.151109 -22.2027
3 -0.100705 -0.0237847 -22.3402
3 3.68072 0.118501 -22.4025
1 7.3242 0.120315 -22.2565
2 -3.70079 3.46664 -22.5357
3 -0.0180394 3.49385 -22.4529
3 0.0250573 7.67406 -22.5354
1 -7.75742 -11.0714 -18.9827
2 -0.204524 -11.677 -19.3433
2 4.04358 -11.5322 -19.6348
1 7.68706 -11.4508 -18.983
1 -11.5262 -7.72411 -19.0431
2 -7.57243 -7.59704 -18.6709
3 -3.85128 -7.61568 -18.8778
2 0.108927 -7.60447 -18.9416
1 3.38573 -7.47889 -18.83
2 7.21005 -7.67592 -19.2343
1 11.2607 -7.70776 -18.731
2 -11.3386 -3.74062 -19.2038
3 -7.47633 -3.56102 -18.8122
2 -2.98626 -3.99264 -17.3486
1 -0.140203 -3.46672 -18.4677
3 3.61207 -3.5803 -18.8306
3 7.38267 -3.87886 -18.8657
3 11.2782 -3.81632 -18.8939
2 -11.3349 0.0472424 -18.9378
2 -7.36666 -0.0636742 -18.643
3 -3.77168 0.0172632 -18.7817
3 3.64253 0.0876919 -18.5313
1 7.3635 0.00409869 -18.7812
3 11.3464 0.200183 -19.0613
2 -7.40893 3.72589 -18.7368
3 -3.64815 3.64693 -18.8643
1 0.0334779 3.72695 -18.73
1 3.60046 3.36563 -19.0002
2 7.63161 3.6484 -18.6792
3 10.5124 3.85445 -18.7558
1 -10.9049 7.79248 -18.6692
2 -7.57554 7.70236 -18.9346
3 -3.56726 7.56337 -18.9676
1 0.24122 7.53817 -18.8771
1 3.92967 7.52266 -18.8396
2 7.40529 8.06159 -19.1623
2 -7.38204 11.2119 -18.9437
1 -3.86416 11.5717 -19.509
1 0.123496 11.1993 -19.0508
2 3.79305 11.2924 -19.0119
1 7.6534 9.89413 -17.4043
3 -7.82491 -14.5941 -15.1461
1 -3.89022 -15.0258 -15.1652
3 0.124411 -15.1029 -15.03
2 3.83479 -15.4489 -15.4077
2 7.87243 -15.0879 -15.288
2 -11.7349 -11.4282 -15.5415
1 -3.7951 -11.3818 -14.9379
1 0.0619433 -11.4402 -14.7937
1 3.76005 -11.4726 -14.9616
1 7.3551 -11.6689 -15.2334
3 11.3668 -11.3752 -15.0083
2 -14.9812 -7.32548 -15.1635
2 -11.4738 -7.4734 -14.9962
2 -7.57006 -7.66926 -14.9845
1 -3.73569 -7.58316 -15.2848
2 3.58408 -7.62627 -15.0848
2 7.4533 -7.62074 -15.0893
1 15.0861 -7.7019 -15.131
3 -15.2022 -3.66059 -14.7964
1 -11.1926 -3.51521 -14.9878
3 -3.80944 -3.74636 -15.001
3 3.82361 -3.69647 -14.9938
1 11.4633 -3.81234 -15.3133
3 -14.8322 0.138827 -15.0126
1 -11.2424 -0.0233151 -14.9367
3 -7.36688 0.445982 -15.0718
1 -3.94513 -0.0565188 -14.9401
1 0.0340643 -0.135783 -14.8484
1 3.89657 -0.0918003 -14.8733
2 7.49386 0.0128248 -15.0962
3 11.1363 -0.0428344 -15.1144
2 15.057 0.0770242 -15.0446
2 -14.7653 3.78842 -15.1346
1 -11.1601 3.87009 -15.0078
2 -7.47009 3.91477 -15.1891
2 -3.83757 3.76333 -15.0912
3 0.0881969 3.85994 -15.0297
2 3.76198 3.61344 -15.1217
3 7.49087 3.6192 -14.853
3 11.1839 3.82858 -15.032
2 14.9312 3.70949 -15.1144
2 -14.957 7.94897 -15.6953
3 -10.9598 7.678 -14.897
3 -7.39004 7.65895 -15.0693
1 -3.71917 7.46227 -15.2206
2 -0.0356655 7.49677 -15.068
2 3.77781 7.38524 -15.0913
2 7.56413 7.47758 -15.2016
2 10.7879 7.28516 -15.1271
2 14.5572 7.53045 -15.1552
2 -11.3277 11.2569 -15.218
2 -3.69281 11.4192 -15.231
2 0.144584 11.3371 -15.1931
1 4.01024 11.2699 -15.1794
2 7.60303 11.3921 -15.3823
1 10.945 11.3941 -16.0245
3 -7.72875 14.7997 -15.1881
2 -3.69989 15.2293 -15.6317
1 0.212871 14.9929 -15.2162
2 3.83854 15.2815 -15.2839
2 8.08279 15.2035 -15.397
1 -8.19241 -18.7004 -11.78
1 -4.4293 -19.118 -12.1503
3 -0.255834 -19.0889 -11.5391
2 3.75527 -18.8097 -11.5555
3 7.7668 -18.8888 -11.3556
2 -11.6309 -14.9861 -11.2674
3 -7.53321 -15.1222 -11.1634
3 -0.176197 -15.159 -11.3111
2 3.76061 -15.3265 -11.2745
2 7.72437 -15.3712 -11.2798
3 11.4551 -15.1918 -11.3231
1 -15.3189 -11.2617 -11.4663
2 -11.189 -11.5588 -11.131
3 -4.03168 -11.3417 -11.0758
3 -0.16854 -11.4783 -11.3014
3 3.89181 -11.355 -11.2429
1 7.6186 -11.4967 -11.3865
2 11.2913 -11.4201 -11.395
1 15.2652 -11.5742 -11.4934
2 -19.0024 -7.57137 -11.1815
1 -15.2868 -7.48492 -11.1842
1 -11.3717 -7.51454 -11.3576
2 -3.8888 -7.46364 -11.2274
1 -0.123627 -7.57384 -11.1718
2 3.75737 -7.62224 -11.0913
2 7.56807 -7.49433 -11.2704
2 11.4888 -7.69704 -11.2284
2 15.3606 -7.81908 -11.4366
2 18.2128 -7.64261 -11.0311
2 -19.0035 -4.20257 -11.242
3 -15.0537 -3.8287 -11.0565
3 -11.3398 -3.79067 -11.2671
1 -7.10988 -3.67697 -11.3209
2 -3.99108 -3.73347 -11.2496
1 0.0379734 -3.78495 -11.3227
1 3.53049 -3.51322 -10.8803
3 7.61831 -3.77923 -11.2709
1 11.4658 -3.88695 -11.549
1 15.0325 -3.66735 -11.4193
1 18.6908 -3.89129 -11.4882
2 -18.8964 0.142226 -11.1556
2 -15.2335 -0.0675644 -11.3031
3 -11.2158 0.101372 -11.4239
3 -7.49962 0.296566 -11.2478
2 -3.96009 0.0789725 -11.1237
2 0.0094781 0.0323643 -11.5332
3 3.74138 -0.157684 -11.1467
2 7.53595 -0.0166033 -11.296
2 11.2648 -0.130098 -11.2758
1 15.1782 0.180241 -11.5477
1 18.792 0.0951614 -11.4679
2 -18.9226 4.50508 -11.7034
1 -14.9617 3.99617 -11.4383
2 -11.1566 3.88475 -11.2641
2 -3.80677 3.83454 -11.1789
3 -0.112867 3.8468 -11.2637
2 3.67579 3.75771 -11.1935
3 11.1698 3.6768 -11.3782
2 15.0259 3.84319 -11.5071
2 20.1083 5.43986 -11.4265
3 -14.7884 7.86331 -11.2477
2 -10.9503 8.0133 -11.469
2 -7.71443 7.65796 -11.525
1 -3.70517 7.56162 -11.3192
1 3.73873 7.56739 -11.5494
2 7.57927 7.41991 -11.4683
1 14.963 7.62456 -11.4178
2 18.7609 7.63469 -11.9464
2 -14.98 11.4149 -11.5741
2 -10.9822 11.4139 -11.4459
1 -3.58898 11.3052 -11.4033
3 0.0854505 11.3816 -11.3011
3 3.88295 11.3093 -11.3031
1 7.34841 11.3045 -11.728
2 11.2303 11.2104 -11.517
1 14.9025 11.2226 -11.4862
2 -11.1501 14.9265 -11.3951
3 -7.34946 15.2223 -11.3024
2 -3.56823 15.2068 -11.3278
1 0.0692424 14.8774 -11.5183
2 3.84465 14.8009 -11.3011
2 7.54174 15.0057 -11.4151
2 11.3451 14.9077 -11.4463
1 -3.68385 19.0549 -11.8972
2 0.16741 18.812 -11.764
2 3.8647 18.8561 -11.5596
2 9.32818 16.8693 -11.2327
2 -0.600321 -22.2938 -7.60131
3 -11.4019 -18.6807 -7.62338
2 -7.48399 -18.6132 -7.57687
1 -3.55595 -19.4741 -7.70153
2 -1.16019 -18.8727 -7.68865
1 1.97401 -18.9889 -6.59409
2 7.57517 -18.9326 -7.34592
2 11.3042 -19.0228 -7.50976
2 -15.2587 -15.2436 -7.9287
3 -11.2647 -15.0222 -7.21563
2 -7.55098 -15.2783 -7.23592
1 -3.73245 -15.2962 -7.51486
1 3.67051 -15.2402 -7.74961
2 7.58376 -15.1755 -7.36522
3 11.5327 -15.0849 -7.58707
3 15.2416 -15.2505 -7.64125
2 -15.0675 -11.4029 -7.56167
2 -11.2311 -11.3794 -7.4359
2 -7.58591 -11.2572 -7.30171
2 -3.98192 -11.4364 -7.51556
2 -0.0399063 -11.446 -7.5843
2 3.68519 -11.3839 -7.67191
2 7.56686 -11.3512 -7.53605
1 11.4662 -11.5611 -7.70454
2 18.9635 -11.593 -7.33914
1 -19.0694 -7.78191 -7.43891
2 -15.1607 -7.73351 -7.49293
2 -11.3593 -7.55942 -7.63703
2 -7.35152 -7.21445 -7.58793
3 -3.73804 -7.77629 -7.42345
2 0.034116 -7.73487 -7.52005
2 3.85927 -7.5906 -7.40786
2 7.60499 -7.54282 -7.46249
2 11.5385 -7.68527 -7.64766
1 15.1995 -7.74716 -7.4321
2 18.8026 -7.77245 -8.31993
2 -18.7449 -4.09435 -7.29617
2 -11.4582 -3.6552 -7.24824
3 -7.50435 -3.73519 -7.49653
2 -3.837 -3.87089 -7.58946
2 0.230628 -3.91508 -7.48743
2 3.99538 -3.83923 -7.20227
3 11.4389 -3.80019 -7.63583
1 15.008 -3.87484 -7.68949
1 18.7449 -3.79534 -7.66719
3 -22.6403 0.510091 -7.4051
3 -18.025 -0.162217 -6.86057
1 -15.353 -0.00757932 -7.26784
1 -11.282 0.0763151 -7.50781
3 -7.74913 -0.054352 -7.54063
2 0.00822205 0.0232855 -7.52853
3 3.81559 -0.0129525 -7.67993
2 7.52014 -0.0269412 -7.52932
3 11.3126 0.0548303 -7.41278
2 15.0208 -0.0264499 -7.55511
2 18.7281 0.0894859 -7.62777
2 22.4089 -0.281293 -7.60758
1 -18.9504 3.9482 -7.77603
1 -14.8506 3.74707 -7.64257
2 -11.2754 3.8498 -7.67983
2 -7.4199 3.86257 -7.62382
3 -3.57074 3.80221 -7.54079
1 3.85924 3.74992 -7.64836
3 7.54057 3.82066 -7.54029
3 11.4057 3.85648 -7.59632
2 18.9117 3.7848 -7.56212
3 -18.3992 7.56646 -7.45108
1 -14.7997 7.60553 -7.77986
1 -11.2569 7.45277 -7.57895
1 -7.44827 7.52278 -7.48903
2 0.0469096 7.56985 -7.74886
2 3.75494 7.5876 -7.68112
3 7.7152 7.58482 -7.39225
1 11.3539 7.65279 -7.51943
2 14.9445 7.65972 -7.55171
1 18.4226 7.56872 -7.2437
2 -18.3492 11.2966 -7.70351
2 -11.2583 11.3202 -7.59626
2 -7.56763 11.2348 -7.39729
2 -3.48145 11.3449 -7.45224
2 0.212985 11.4774 -7.54859
2 3.76251 11.2738 -7.57388
3 7.69322 11.303 -7.50318
1 15.0147 11.3362 -7.74723
1 18.6852 11.3108 -7.78386
1 -14.9593 15.0733 -7.66002
1 -11.4307 15.0751 -7.68809
2 -7.49581 15.1276 -7.45793
3 0.060295 15.2628 -7.531
2 3.80806 14.9536 -7.76311
2 7.60005 14.915 -7.59039
1 11.2969 15.0233 -7.56961
3 15.0977 15.0347 -7.78427
2 -11.4079 18.9225 -7.97783
2 -3.76847 19.0399 -7.55713
2 0.162772 18.9584 -7.59072
2 3.83417 18.7336 -7.75687
2 5.68766 18.8374 -5.73314
2 11.3466 18.416 -7.50696
2 1.87955 20.9063 -7.63756
3 -3.85838 -22.557 -3.75125
2 0.0469252 -22.5821 -3.74943
2 3.94697 -22.7184 -3.78842
1 -7.80638 -19.1847 -3.8168
2 -3.74379 -18.8269 -3.76853
2 0.101668 -18.9804 -3.62266
2 7.57592 -18.9381 -3.84945
3 11.3676 -18.8519 -3.85474
2 -15.0847 -15.1585 -3.88863
2 -7.5233 -15.0214 -3.68475
1 -3.69244 -15.2356 -3.73414
2 -0.0411643 -15.1557 -3.88271
2 3.83994 -15.0658 -3.78373
3 7.57592 -15.2638 -3.76344
1 11.4579 -15.2112 -3.84594
2 15.1178 -15.2963 -3.72329
2 -18.9932 -11.2696 -3.65424
2 -15.1485 -11.2469 -3.56006
2 -3.97985 -11.5216 -3.6861
3 0.0105116 -11.3998 -3.67023
1 3.78295 -11.6106 -3.83954
3 7.46398 -11.4619 -3.92066
3 11.5421 -11.4056 -3.89892
3 15.1723 -11.4767 -3.78478
1 18.862 -11.5978 -3.74794
3 -18.9684 -7.49545 -3.63113
1 -7.34793 -7.49001 -3.69985
1 -3.85891 -7.53963 -3.7676
2 3.83026 -7.70939 -3.71075
1 7.75799 -7.78607 -3.57302
1 11.4655 -7.49228 -3.92029
1 15.1058 -7.62406 -3.89355
2 18.8609 -7.53371 -3.89159
1 -22.0532 -3.68813 -4.36745
2 -18.7771 -3.93891 -3.84596
1 -15.0051 -3.98419 -3.75362
2 -11.2955 -3.77314 -3.84401
1 -7.56563 -3.78727 -3.94705
1 -3.81257 -3.77403 -3.89011
2 3.68725 -3.77928 -3.83917
2 7.63456 -3.86709 -3.79423
3 11.2857 -3.60295 -3.85231
3 15.1534 -3.56691 -4.0006
3 18.8458 -3.74957 -3.91631
1 22.3524 -3.6001 -4.03223
2 -22.7584 -0.374416 -3.25922
2 -18.6307 -0.160712 -4.12835
3 -14.9334 0.0412774 -3.72762
2 -11.2812 -0.0371323 -3.75561
3 -3.99796 -0.111811 -3.99297
2 0.0531405 -0.104389 -3.74877
1 3.64575 -0.110397 -3.85087
3 7.6309 0.00661722 -3.93258
1 15.1384 -0.225678 -3.86601
2 18.784 0.01869 -3.94651
2 21.0577 0.604558 -2.94467
2 -22.9382 4.02536 -4.1474
2 -18.7845 3.8159 -3.75359
2 -15.0256 3.84337 -3.78809
3 -11.3817 3.84906 -3.70103
2 -7.79163 3.72804 -3.84199
2 -3.79067 3.74772 -3.90173
3 0.0488199 3.78016 -3.93996
3 3.78664 3.84587 -3.8276
1 7.49698 3.85083 -3.75954
1 11.6066 3.74771 -3.94972
2 15.0149 3.92651 -3.70751
2 18.982 3.7673 -3.90043
3 -18.61 7.76344 -3.96873
2 -14.9249 7.49417 -3.76059
2 -11.3154 7.49035 -3.77636
2 -7.44317 7.48951 -3.68674
2 -0.157402 7.66183 -3.89601
3 3.68333 7.63565 -3.65255
1 7.53192 7.62353 -3.76635
3 11.3595 7.53586 -3.86825
2 15.0202 7.8763 -3.78432
3 18.7762 7.77174 -3.88797
1 -18.4842 11.4992 -3.84298
1 -14.8119 11.3416 -3.69161
3 -11.3315 11.1591 -3.67091
3 -7.53854 11.4422 -3.72646
2 -0.0835414 11.4065 -3.7953
3 3.73355 11.368 -3.78139
3 7.7297 11.3453 -3.70882
1 14.9322 11.6348 -3.93224
3 18.7639 11.3639 -3.91506
2 -14.9342 15.4623 -3.7794
2 -11.2888 15.0873 -3.72211
2 -7.51837 15.161 -3.70076
2 -3.74024 15.1516 -3.85319
1 0.188718 15.0782 -3.88608
2 3.73458 14.998 -3.69785
2 7.4777 14.9755 -3.78909
2 16.2389 16.0962 -3.87214
2 -11.1447 19.4613 -4.19391
3 -7.51926 18.8204 -3.81301
3 -3.63699 18.9505 -3.70214
3 0.103669 18.907 -3.71808
1 3.88219 18.7609 -3.76724
1 7.82321 19.0032 -3.59205
3 11.6119 17.9944 -3.33615
1 -3.89313 22.2684 -3.61407
1 3.94822 22.5791 -3.57891
1 -7.25731 -22.4265 0.164871
3 -3.67357 -22.7551 0.144986
1 0.117166 -22.673 0.0736699
3 5.86164 -20.8635 0.163187
2 -11.2944 -18.8824 0.0530057
3 -7.63364 -19.0664 0.07146
1 -3.6563 -18.9925 0.222137
1 -0.0781437 -19.089 0.279764
3 3.95319 -19.0858 0.0658767
2 7.53125 -18.8041 0.0254678
3 11.4314 -18.8726 0.241664
2 -15.0998 -15.2775 0.0981491
1 -11.4312 -15.072 -0.18002
3 -7.5073 -15.1159 0.00708227
2 -3.74352 -15.1505 0.194511
2 0.0842831 -15.1348 0.106772
3 3.78629 -15.3156 0.0492852
2 7.69536 -15.0652 0.0365892
1 11.3742 -15.2354 0.0980294
3 15.1858 -15.1946 0.0576128
2 -19.0114 -11.4851 0.183981
1 -15.135 -11.4436 -0.0538246
1 -11.4508 -11.3434 -0.131449
3 -7.35695 -11.3036 0.054274
1 -3.7963 -11.3806 0.0962777
1 -0.176167 -11.37 0.135853
2 3.85538 -11.3136 0.0443527
3 7.73548 -11.3657 -0.104834
2 11.2399 -11.1784 -0.0404729
2 15.1024 -11.3736 0.112879
2 19.1538 -11.4006 -0.0507361
2 -22.5277 -7.40198 -0.128235
3 -18.9129 -7.58346 0.0809336
2 -15.2023 -7.66263 0.0490154
2 -11.3148 -7.66361 -0.125553
2 -7.6074 -7.26115 0.220897
2 -3.8491 -7.44108 0.0552717
1 0.0164955 -7.57619 -0.173668
2 3.69849 -7.603 -0.0768176
3 7.57344 -7.58524 0.0310381
3 11.198 -7.62546 -0.131144
1 15.0602 -7.43969 -0.0849713
2 18.8145 -7.6469 -0.0333361
2 22.7795 -7.26364 -0.391265
3 -22.6924 -3.99553 0.0764458
3 -19.0011 -3.78667 -0.0157543
1 -14.9462 -3.81511 -0.133279
3 -3.90836 -3.83721 -0.26074
2 -0.0486088 -3.59814 -0.119706
2 3.82543 -3.71994 -0.289348
2 7.64937 -3.90022 0.0509329
1 11.2635 -3.78332 0.0577384
1 15.0976 -3.8019 -0.0683204
1 19.0415 -3.6278 -0.035079
3 22.4352 -3.77938 -0.217027
3 -22.6405 0.193587 -0.425394
1 -18.8048 0.0304861 -0.204349
3 -15.2322 0.071038 -0.0898043
3 -7.66508 0.0480083 -0.0254964
2 -3.84673 -0.316328 0.139103
1 0.0876787 -0.162276 0.143062
2 3.82223 -0.126422 -0.211028
3 7.56421 0.00861784 -0.089879
1 11.2483 -0.0962196 -0.145753
1 15.0184 0.0614344 -0.18859
1 18.8378 -0.0921959 -0.1554
3 -22.4263 4.01986 -0.262617
3 -15.1362 3.8204 -0.0134808
1 -7.79688 3.7846 0.190797
2 -3.56098 3.67894 -0.0107238
3 -0.125774 3.79526 -0.144664
1 3.79867 3.77621 -0.0846391
3 7.54474 3.57749 -0.0666429
1 11.2631 3.75804 -0.00266871
2 15.0352 3.90547 -0.0869141
3 18.6936 3.76888 -0.138944
1 22.3816 3.82184 -0.177561
2 -22.6108 7.72535 -0.214205
1 -18.822 7.8607 -0.11772
2 -15.0899 7.49596 -0.0870675
3 -11.392 7.47015 -0.0502319
2 -7.35694 7.74312 -0.0196489
2 -3.73564 7.52016 -0.0283159
1 -0.100821 7.51472 0.0231776
2 3.68887 7.6352 -0.00975964
1 7.49756 7.69597 -0.0858312
2 11.2657 7.54051 -0.166271
3 14.9669 7.6841 -0.0231073
2 18.6711 7.55468 -0.205973
2 22.459 7.37329 -0.0989336
2 -18.2707 11.5386 0.0402021
2 -11.196 11.1632 0.0654153
2 -7.47068 11.091 -0.0227345
2 -3.64183 11.4892 0.125298
3 3.60527 11.3395 -0.0262836
3 7.48554 11.3897 -0.152303
1 11.2407 11.4417 0.0941934
1 15.1921 11.4156 0.070185
1 -14.6924 14.331 0.114347
1 -11.3453 15.0188 0.126739
2 -7.55719 15.1177 0.144201
3 -3.66208 15.1967 0.173303
1 0.0390831 15.0659 0.209018
2 3.64969 14.937 -0.00368063
3 7.52547 14.9903 0.103988
2 11.3738 14.9567 0.0891235
3 15.0576 15.17 0.15477
2 -11.393 19.1625 0.144288
2 -7.45976 18.994 0.0691058
1 -3.71277 18.8698 0.159115
3 -0.128817 19.0466 0.0750298
1 3.88324 18.9306 0.131804
3 7.50157 18.746 -0.0217362
1 11.5185 18.9148 0.0043113
2 -7.41977 22.5146 0.0269075
3 -3.81735 22.6657 -0.0328411
2 0.0618156 22.7973 0.164707
3 3.94227 22.4775 0.240182
1 7.53695 20.6669 2.01542
1 -3.69378 -22.7573 3.76493
3 0.263409 -22.6698 3.81577
2 3.84867 -22.8188 3.90169
1 -11.4962 -19.3153 4.27055
1 -7.70545 -18.9611 3.94508
3 -3.79443 -18.9798 3.94046
3 3.78933 -18.9234 3.95783
1 7.50307 -19.3166 3.6376
2 11.7741 -18.9543 4.40596
1 -15.1755 -15.2091 3.8733
1 -11.4774 -15.1023 3.79578
2 -7.57249 -15.0899 3.63839
2 -3.79699 -15.3392 3.86151
3 0.0577999 -15.1385 3.80897
1 3.89912 -15.016 3.8625
1 7.65277 -15.1427 3.86973
3 11.3981 -15.1943 3.93308
3 15.2532 -15.0236 3.89398
2 -17.2285 -11.3507 5.58686
2 -15.2328 -11.4229 3.94239
2 -11.3921 -11.3286 3.63732
2 -7.28731 -11.4807 3.71826
2 -3.9915 -11.4575 3.68967
1 -0.0112316 -11.4677 3.74214
1 3.77911 -11.5499 3.939
1 7.62855 -11.4054 3.78763
1 11.3998 -11.2428 3.97594
2 15.261 -11.4195 3.8401
2 19.0216 -11.1113 3.7982
1 -15.1665 -7.65821 3.85352
1 -11.4801 -7.88915 3.79851
1 -7.49254 -7.35851 3.927
2 -3.73859 -7.5245 3.82658
3 -0.093365 -7.53818 3.77176
1 3.81483 -7.66591 3.8176
2 7.61734 -7.57426 3.83467
1 15.2111 -7.51942 3.87568
3 18.9144 -7.43087 3.92768
2 -22.5323 -3.98388 3.93097
2 -19.1935 -3.78782 3.75833
1 -15.1542 -3.81315 3.62468
1 -11.4665 -3.76976 3.84891
2 -7.4627 -3.70505 3.83349
3 -3.62441 -3.70768 3.90889
2 3.50999 -3.81638 3.84964
3 7.57147 -3.74624 3.61833
2 11.3545 -3.69036 3.77999
2 15.142 -3.65024 3.68899
1 18.9827 -3.71234 3.61898
3 22.5966 -3.782 3.57962
2 -19.3023 0.00260551 3.62761
3 -15.0051 0.0443773 3.74219
1 -11.5071 0.102237 3.76815
2 -7.66433 -0.10325 3.77432
2 -3.85205 -0.24456 3.62435
2 0.120099 -0.0505949 3.77765
3 3.79463 0.00667994 3.76492
1 7.5612 0.0331403 3.80983
1 11.2529 0.0795397 3.84899
2 15.0104 -0.0204888 3.64249
1 18.8597 0.153789 3.63299
2 22.3074 0.372884 3.5831
2 -22.9427 3.16588 3.52655
2 -18.8735 3.66996 3.60673
2 -15.3206 3.56335 3.65468
3 -11.2228 3.76627 3.71759
2 -7.68318 3.86468 3.79899
2 -3.71812 3.89816 3.71145
1 0.122758 3.86132 3.69808
3 3.83097 3.80945 3.86624
1 7.55578 3.86083 3.79614
3 14.9414 3.76865 3.61114
1 18.7909 3.66729 3.7013
1 22.504 3.26716 3.62594
2 -18.9144 7.73656 3.71734
2 -15.0456 7.40452 3.65426
3 -11.2958 7.41457 3.79644
3 -7.58521 7.48155 3.75862
2 -3.71538 7.33023 3.8332
1 0.0887516 7.54903 3.88412
3 3.64999 7.53132 3.90444
3 7.68475 7.58887 3.76097
2 14.8683 7.85815 3.76493
1 18.7122 7.63491 3.77862
3 -18.6115 11.4616 3.73505
2 -11.2967 11.161 3.86168
2 -7.56255 11.2503 4.01553
3 -3.7747 11.3632 3.90733
2 -0.0122792 11.2716 3.82225
2 3.80728 11.2069 3.85885
2 7.5531 11.2748 3.66144
3 11.1053 11.2703 3.707
1 14.6832 11.1443 3.86549
3 -14.992 15.1299 3.92719
2 -11.1583 15.1476 3.90641
2 -7.58923 15.1503 3.9908
1 -3.73197 15.0997 3.96335
1 -0.0193629 15.2393 3.93641
3 3.60307 15.044 3.75552
3 14.9041 15.0907 3.79203
1 -11.3521 19.0118 4.12988
2 -7.39246 19.0099 3.97235
2 -3.64371 18.9644 3.75337
2 0.0710596 18.9079 3.66013
1 3.71795 18.8479 3.84483
3 7.3718 18.762 3.81239
2 11.5769 18.8635 4.26543
2 -3.76092 22.5628 3.9675
1 -1.33621 21.6865 3.96331
1 3.5521 22.1018 3.8775
2 -0.0406055 -22.6302 7.65968
3 -7.67311 -18.8595 7.59146
2 -3.85189 -19.0163 7.81687
2 0.0492738 -18.8952 7.5015
2 3.90336 -18.9081 7.48548
1 7.6141 -18.6183 7.73595
2 11.2318 -18.5981 7.12231
2 -14.9924 -15.2078 8.04093
1 -11.4716 -15.2301 7.52486
3 -7.70637 -14.9926 7.59337
3 -3.89707 -15.3461 7.66665
2 0.100766 -15.2695 7.57056
3 3.96645 -15.1562 7.53426
2 7.70799 -15.2602 7.79462
3 11.3868 -15.1077 7.66453
3 15.2384 -14.799 7.75145
2 -18.7 -11.5569 7.91751
2 -15.1238 -11.3146 7.5573
2 -11.4743 -11.4003 7.80487
1 -7.49414 -11.3764 7.71652
2 -3.67651 -11.4482 7.5739
2 -0.122543 -11.3609 7.60529
2 3.76265 -11.3829 7.41164
2 7.55315 -11.367 7.62277
2 11.4368 -11.2951 7.54587
2 15.1817 -11.3198 7.58685
2 18.9081 -10.889 7.54453
2 -18.6597 -7.38167 7.96557
1 -15.2567 -7.48704 7.6423
1 -11.4983 -7.60505 7.62977
1 -7.69565 -7.55164 7.63777
2 -3.75536 -7.28246 7.87087
1 0.0238178 -7.39818 7.4511
3 3.5126 -7.60195 7.45318
2 7.62316 -7.67399 7.64216
2 11.471 -7.42669 7.66694
2 15.1471 -7.34322 7.53907
1 18.8371 -7.28985 7.50377
2 -18.9101 -3.67772 7.69235
2 -15.2616 -3.61744 7.54199
1 -11.4389 -3.57221 7.50956
1 -3.8395 -3.71939 7.7392
1 0.0440896 -3.83118 7.74864
3 3.74554 -3.77849 7.66819
1 7.61914 -3.80232 7.62457
3 11.4142 -3.63564 7.5752
2 15.0916 -3.75262 7.61333
1 -22.3873 -0.0459701 7.65516
2 -19.0308 -0.010586 7.39828
2 -15.3341 0.107512 7.39951
3 -11.5058 0.229726 7.64479
2 -7.66526 -0.0924453 7.71609
2 -3.81092 0.0322375 7.68798
3 -0.0449881 0.02324 7.62958
2 7.48176 0.0534735 7.40622
1 11.0795 0.090371 7.57765
3 15.1272 -0.0540805 7.67554
2 18.7112 -0.00233267 7.51689
2 22.2135 -0.293755 7.38361
1 -19.8958 4.22578 7.68326
3 -15.2839 3.70639 7.52574
1 -11.5885 3.73344 7.47391
1 -7.49426 3.74119 7.48853
3 -3.72972 3.95157 7.71068
3 -0.0102845 3.88764 7.53602
2 3.67878 3.82916 7.6352
2 7.68754 3.78686 7.5399
2 11.1481 3.95294 7.794
3 15.1129 3.71546 7.5179
2 18.8294 3.62422 7.44646
3 -18.8821 7.5833 7.58449
2 -15.3453 7.37039 7.45641
2 -11.2901 7.42914 7.55716
3 -7.65154 7.53638 7.55142
3 -3.74528 7.61871 7.64302
2 -0.0572307 7.40945 7.538
2 3.73655 7.46589 7.59141
2 7.47331 7.44793 7.5117
2 11.2779 7.67038 7.72642
1 14.9265 7.71529 7.52984
2 20.3851 6.12629 7.55601
2 -18.8129 11.4776 7.88836
2 -15.1545 11.1622 7.42581
2 -11.4202 11.2974 7.78213
1 -7.63067 11.2429 7.61304
1 -3.9112 11.2414 7.67531
2 0.0446501 11.4275 7.55003
2 3.67654 11.2076 7.51802
2 7.51075 11.4036 7.62674
1 11.1481 11.5065 7.57777
3 15.1773 11.2087 7.53505
3 18.7481 11.2875 7.26033
1 -15.2167 14.9441 7.88312
3 -11.1954 15.1411 7.67144
2 -7.48381 15.1217 7.70279
2 -3.84859 15.0581 7.74389
3 -0.162814 15.2383 7.71241
2 3.69202 15.0241 7.73359
2 7.49719 15.1042 7.47245
1 9.37275 15.143 5.70499
3 15.1162 14.9651 7.55667
3 -11.3919 18.6305 7.4656
3 -7.53765 18.8494 7.84438
3 -3.8047 18.9612 7.81236
3 0.00215279 18.9482 7.7315
3 3.74595 18.7422 7.61337
1 7.48823 18.4422 7.59595
2 0.0846978 22.302 7.25318
3 -3.34604 -19.0571 11.402
1 0.614924 -19.1817 11.4448
3 5.09378 -19.3192 12.5115
1 7.48255 -18.83 11.5377
2 -11.4928 -15.3056 11.3851
3 -7.54188 -15.243 11.3487
2 -3.71801 -15.1661 11.5024
1 0.0919558 -15.1571 11.2986
2 3.78094 -15.1445 11.2008
2 7.88084 -14.9673 11.3654
2 11.3997 -15.0531 11.355
2 -15.2582 -11.5985 11.5405
3 -11.5687 -11.4397 11.4012
3 -7.60907 -11.3619 11.3819
2 -3.68436 -11.5256 11.5283
2 0.142152 -11.3465 11.3767
2 3.77782 -11.5375 11.2674
1 7.5592 -11.4553 11.4582
2 11.5134 -11.3493 11.3814
1 15.0712 -11.1209 11.4163
2 -18.7562 -7.85903 11.3923
2 -15.0108 -7.77295 11.5827
1 -11.3928 -7.59654 11.4214
3 -7.63876 -7.56525 11.2282
1 -3.76154 -7.35629 11.0438
3 0.20328 -7.70442 11.4082
2 3.92298 -7.66967 11.4319
3 7.6948 -7.6105 11.306
3 11.3946 -7.62442 11.5006
1 15.3383 -7.41684 11.3636
2 19.0619 -7.54813 11.315
3 -18.7133 -3.30694 11.4358
2 -15.1206 -3.73341 11.4482
3 -11.2674 -3.78031 11.408
2 -7.52762 -3.75198 11.1804
1 -3.65552 -3.93647 11.5189
3 3.73343 -3.87976 11.3911
1 11.3093 -3.75283 11.2913
2 15.1475 -3.69799 11.4314
3 18.4536 -3.34299 11.2536
2 -18.9537 -0.151263 11.3372
1 -15.2297 0.0393225 11.5018
1 -11.6226 0.138911 11.3207
1 -7.61884 -0.155007 11.6363
3 -3.66534 -0.0902763 11.29
1 -0.0659593 0.0714376 11.3686
1 4.0507 -0.113654 11.1022
1 7.73627 0.124533 10.9391
2 11.4419 0.139784 11.1685
3 15.1871 0.221306 11.4829
2 18.6566 0.0693384 11.3473
1 -19.4053 4.24771 11.7286
2 -15.1718 3.80868 11.4737
2 -11.6011 3.7244 11.5432
2 -7.78212 3.71999 11.4322
3 -4.03342 3.60735 11.6749
2 0.0285551 3.61809 11.2481
3 3.9634 3.74797 11.3761
2 7.50236 3.71428 11.1932
3 15.1235 3.81667 11.3497
2 18.9181 3.57521 11.3513
2 -19.018 7.95984 11.3705
2 -15.1362 7.50202 11.4092
2 -7.41245 7.53198 11.3369
1 -3.98556 7.19202 11.2471
1 -0.0106153 7.34732 11.426
3 3.88898 7.56325 11.5357
2 7.4699 7.55005 11.4363
1 11.4054 7.67924 11.4624
1 18.8224 7.95396 11.5158
3 -15.179 11.2206 11.5197
2 -11.2145 11.1543 11.3908
2 -7.69597 11.2402 11.5907
1 -3.85916 11.2189 11.4805
2 1.85767 11.2384 9.78158
2 3.75472 11.2933 11.4964
2 7.64354 11.1734 11.341
2 15.2404 11.3625 10.9754
2 -11.6336 15.1701 11.4821
2 -7.4973 15.1299 11.4424
1 -3.70644 15.0523 11.5732
2 0.0803196 15.3971 11.5273
2 4.08919 13.3402 13.2583
1 7.00484 15.0165 11.7069
2 11.7052 15.1079 11.5337
2 -7.58422 18.5567 11.3475
3 -3.67205 18.8114 11.644
3 0.0728833 18.9355 11.4858
3 3.67952 18.6228 11.4242
2 7.93914 18.9205 11.5246
1 -8.21505 -15.7303 15.141
2 -3.74825 -15.4063 15.2754
3 0.332383 -15.2516 15.1239
2 3.89825 -15.1251 15.3233
1 -11.2901 -11.3668 15.0761
2 -7.54262 -11.3659 14.7423
2 0.0859702 -11.4525 15.1165
1 4.04569 -11.5806 15.0684
1 7.62505 -11.5564 15.161
1 11.5503 -11.4637 15.1986
2 -15.1894 -7.95705 15.2517
2 -11.2011 -7.46414 15.2668
1 -7.56768 -7.58251 15.1103
2 -3.82733 -7.71923 15.2042
1 0.183745 -7.7119 15.1673
1 3.90587 -7.54267 15.0938
2 7.4088 -7.62394 15.1709
3 11.4253 -7.49117 14.9738
3 15.2054 -7.6719 14.9221
3 -15.095 -3.94421 15.1386
3 -11.2486 -3.67826 14.9409
2 -7.46161 -3.76369 15.1299
1 -3.64219 -4.01947 15.0927
3 3.82259 -3.94942 15.2693
1 7.65271 -3.68893 15.2113
2 10.9477 -3.2443 15.1306
2 15.2404 -3.71501 15.2256
3 -15.0678 0.182138 15.1852
2 -11.3268 -0.0975957 15.1696
3 -3.81518 -0.188516 15.1231
1 3.65581 -0.144569 15.2268
1 7.77881 -0.109178 15.271
1 10.3815 -0.898089 15.1598
2 14.905 0.255842 15.1656
2 -11.4698 3.81599 15.1338
2 -7.65513 3.77329 15.2491
2 -3.97824 3.80487 15.2581
2 -0.0958018 3.61846 15.089
1 3.69727 3.74724 15.2339
1 7.38218 3.91801 15.1533
1 11.1762 3.89898 15.2022
2 15.4102 4.06023 15.5031
3 -11.3743 7.42291 14.9796
2 -7.72497 7.67995 15.2554
2 -3.95041 7.44093 15.1889
2 0.0215388 7.42617 15.1772
1 3.75937 7.4181 15.3681
1 7.47364 7.8087 15.4886
1 11.2768 7.62663 15.4121
1 15.1051 7.9863 15.1738
2 -7.741 11.3477 15.244
3 -4.05696 11.3287 15.3703
2 0.0854939 11.2824 15.0549
2 3.72383 11.3152 15.2623
3 7.30196 11.3062 15.0744
2 11.4233 11.5671 15.1601
3 -7.73768 14.9517 15.0489
1 -4.01444 15.0695 15.3725
1 0.0195832 15.7656 15.5229
1 3.95153 15.2121 15.393
3 7.65347 15.0441 14.5441
1 -7.29565 -11.7956 18.1953
2 -4.71799 -11.6632 18.8523
3 -0.243845 -11.4651 18.6483
2 3.78578 -11.4821 18.9513
3 7.92588 -11.34 18.61
3 -11.4202 -7.22201 18.8099
2 -7.714 -7.59404 18.7891
2 -3.80587 -7.5068 19.032
3 0.032303 -7.71075 18.9651
3 3.99114 -7.62829 19.0294
1 7.56258 -7.63491 18.7118
2 11.4256 -7.87423 18.9079
1 -13.695 -3.86209 17.1857
3 -7.44813 -3.87852 18.9361
1 -3.62584 -3.95646 18.9059
3 3.82815 -3.89364 19.0758
3 7.85266 -3.83088 19.0973
2 11.3223 -4.01011 19.1467
1 -11.8302 0.212837 18.8051
3 -7.63474 -0.16207 19.0221
1 -3.79442 -0.372933 18.9822
3 0.010662 -0.294638 19.01
2 3.73902 -0.0393031 19.0618
2 7.52875 0.133306 19.0431
2 11.5004 -0.0510214 19.0246
2 -7.60428 3.81926 18.8019
2 -3.8936 3.63477 19.2098
3 0.0932572 3.64148 19.1209
2 3.70613 3.65771 18.7765
3 7.33695 3.79454 19.0721
1 11.436 4.14424 19.0503
1 -11.7849 7.06779 18.8595
3 -7.63008 7.38417 19.0727
1 -3.94449 7.54504 19.0492
1 -0.061299 7.46898 19.0067
2 3.79466 7.45394 19.0676
2 6.09846 7.79759 20.8722
1 11.2244 7.77933 18.9025
2 -4.13638 11.1641 19.1027
3 -0.0700863 11.2851 18.8351
2 4.64482 11.7816 19.3913
2 7.51359 11.54 18.7766
3 0.296637 -5.72279 20.7942
2 0.251353 -3.85234 22.6706
3 3.89515 -3.7414 22.5513
1 -7.62535 -0.277653 22.6434
3 -3.86392 -0.346402 22.652
1 0.25284 -0.0810676 22.6536
1 3.88236 -0.0138149 22.6062
2 -3.96651 3.63814 22.7627
2 0.19993 3.61548 22.8958
3 3.73048 3.8712 22.6396
1 0.110947 7.81195 22.5358
2 -5.30684 -5.46496 -22.2488
3 -1.73691 -3.72914 -20.5427
1 2.1792 -5.49925 -22.4778
1 4.82807 -5.53715 -22.341
3 -1.75544 -2.07937 -22.3361
3 1.69717 -1.90898 -22.351
3 5.23568 -1.69753 -22.5094
2 -5.21238 1.4643 -22.5866
3 -1.61315 1.82077 -22.3737
2 1.77711 1.81304 -22.3201
2 -5.27985 5.54042 -22.4556
2 6.90246 4.84068 -20.9794
1 -5.88612 -12.9342 -18.7869
2 -2.19858 -13.333 -18.8133
1 2.04414 -12.9164 -18.6673
2 6.03059 -13.1096 -18.8358
3 -9.62958 -9.28733 -18.7671
2 -5.7463 -9.49778 -18.8909
2 -1.74211 -9.5214 -18.828
1 1.71457 -9.89119 -18.6749
1 5.68097 -9.58001 -19.2097
2 9.27071 -9.67564 -19.0971
1 -13.0654 -5.61512 -18.5785
2 -9.22744 -5.33135 -18.7917
1 -5.53564 -5.64389 -18.5801
2 -1.87548 -5.70494 -18.7476
3 1.44798 -5.52439 -18.7022
2 5.44683 -5.66411 -18.9415
1 9.50899 -5.78749 -19.3829
2 13.217 -5.73368 -18.7306
3 -9.43823 -1.95882 -18.8599
3 -5.55054 -1.90494 -18.6394
2 -2.03476 -1.87961 -18.8065
3 1.86178 -1.68773 -18.5249
3 5.50564 -1.96133 -18.8529
1 9.32069 -1.96747 -18.836
2 12.9683 -1.74884 -19.0082
3 -13.0849 1.97374 -18.6405
2 -9.37109 1.88093 -18.6052
2 -5.56062 1.87299 -18.7303
2 -1.97492 1.76887 -18.543
3 1.75692 1.61945 -18.6138
2 5.67076 1.87489 -18.6802
2 9.22672 1.71587 -18.8878
1 13.1047 2.32359 -18.6186
2 -9.42172 5.67563 -18.8294
3 -5.46652 5.516 -19.03
2 -1.91288 5.6049 -19.1001
2 2.17266 5.50449 -18.8848
1 5.56787 5.33573 -18.906
2 8.81442 5.90927 -19.3776
2 12.7647 5.23967 -18.6142
3 -5.37001 9.56264 -19.0208
1 -1.80266 9.46007 -19.0089
3 2.06147 9.40209 -18.8359
1 5.70786 9.74849 -19.1818
2 11.1389 9.36528 -17.2718
2 -5.69364 13.1486 -19.0422
1 -1.76172 13.0869 -19.1145
2 1.96884 13.2028 -19.2002
2 -6.22807 -16.579 -15.3675
2 -1.95846 -16.7422 -15.0762
3 1.6805 -16.6932 -14.9818
2 6.09999 -16.8604 -15.0762
2 -13.7182 -12.9636 -15.232
1 -7.73493 -11.3223 -15.1157
1 -5.696 -13.1266 -14.9202
3 -1.96163 -13.2995 -15.157
3 1.88564 -13.3865 -14.9955
2 5.68004 -13.5509 -15.0273
2 9.99324 -13.5335 -15.4007
3 -13.0627 -9.30036 -15.032
1 -9.52655 -9.51428 -15.1213
3 -5.58974 -9.47679 -14.9719
3 -2.06459 -9.59928 -15.0917
3 1.87481 -9.61747 -14.8517
2 5.67425 -9.69776 -15.098
1 9.55687 -9.4696 -15.0587
2 13.0959 -9.37678 -14.9977
3 -16.8309 -5.58397 -14.9049
2 -13.0812 -5.16864 -15.1636
2 -9.31244 -5.47804 -14.9714
2 -5.72099 -5.65048 -15.1062
2 -1.94403 -5.60605 -15.1483
2 1.81737 -5.57535 -15.0249
2 5.6782 -5.60462 -15.1149
2 9.33453 -5.6284 -15.0468
1 13.1936 -5.81482 -14.9902
3 16.8394 -5.82533 -15.3232
2 -17.2605 -1.98193 -14.7033
2 -13.2934 -1.85686 -15.1735
3 -9.28425 -1.68413 -14.9782
1 -1.89515 -1.90774 -15.0705
3 2.03924 -1.86816 -14.9473
2 5.70921 -1.95781 -15.065
3 9.38177 -1.92873 -15.1788
1 13.2901 -1.78923 -15.169
1 16.7801 -1.84621 -15.1128
2 -16.8713 1.95165 -15.1274
1 -12.975 1.8831 -14.7928
3 -9.29659 1.95252 -15.1984
3 -5.65045 2.07241 -14.9738
2 1.83282 1.73489 -15.0741
2 5.60932 1.88345 -14.9296
2 9.40955 1.86491 -15.106
3 12.9897 1.859 -15.0839
3 16.8564 1.99506 -15.0297
2 -16.4185 5.92696 -15.1198
1 -12.9714 5.90011 -15.0852
2 -5.52872 5.75212 -15.1859
2 -1.90709 5.53698 -15.1915
3 1.79383 5.5951 -15.1102
3 5.83343 5.52689 -14.8901
3 12.803 5.71032 -15.1661
1 16.9172 5.22736 -15.4454
3 -12.812 9.08087 -14.9493
2 -9.18408 9.74492 -15.27
1 -5.54066 9.61843 -15.1648
2 -1.77722 9.40734 -15.2039
2 2.0799 9.34655 -15.0519
2 5.79216 9.24214 -15.174
2 9.29363 9.44252 -15.387
2 12.7089 9.54801 -15.3088
3 -12.989 13.3744 -15.105
3 -9.03506 12.4988 -14.9938
2 -1.70754 13.2406 -15.4292
2 2.02413 13.2007 -15.2827
2 9.54656 13.2068 -15.325
2 12.3686 13.3399 -15.2822
2 -5.81657 16.7619 -15.2704
1 -1.73895 16.8092 -15.1605
2 2.29911 17.2755 -15.5792
2 6.03322 16.7179 -15.1168
1 -2.58929 -19.7535 -10.5167
1 1.67608 -19.267 -9.79029
3 -9.61554 -16.6 -11.3615