3660
 Atoms. Timestep: 4193
1 -0.0630152 -7.58764 -21.798
3 -3.88735 -4.1432 -22.4171
1 0.371213 -2.84086 -20.9288
2 3.26358 -2.32005 -20.7394
3 -7.21801 -1.22223 -20.6978
2 -1.27743 -0.770945 -21.0247
2 1.48049 -0.349554 -20.8414
1 7.02773 1.13343 -21.3172
2 -4.63976 4.82832 -23.043
1 3.60729 3.65204 -22.3257
1 1.78133 6.99972 -20.4655
3 -7.65257 -11.4439 -18.3527
3 -3.80364 -11.5276 -18.4947
3 0.252849 -11.3511 -18.5935
3 3.91639 -11.1208 -18.2908
3 7.72963 -11.6932 -18.3259
2 -10.4949 -7.50003 -18.0204
2 -5.731 -7.67021 -20.2705
3 -3.72892 -7.84208 -18.5548
2 -0.422553 -7.82364 -18.4392
2 3.71088 -7.19023 -18.7075
2 11.0372 -7.63491 -18.4978
1 -10.6303 -3.93185 -18.9949
2 -6.20087 -5.31219 -18.399
3 -4.02923 -3.93867 -18.4814
2 -0.339876 -3.72176 -18.5947
2 3.96311 -3.80723 -18.632
1 7.6298 -3.08936 -18.86
3 11.5541 -4.09947 -19.2671
3 -10.9259 0.152417 -18.1452
1 -8.04972 -0.447678 -18.3083
2 -3.84023 0.0999237 -19.2226
2 3.4726 -0.319144 -18.7816
2 5.54494 -0.102912 -16.9496
2 11.4473 0.213775 -19.2286
3 -11.3066 4.10498 -18.7978
3 -7.33298 3.63847 -18.9713
1 -3.92392 3.70979 -18.763
3 -0.230174 3.74556 -18.968
2 3.64574 3.44834 -18.8875
2 7.68885 3.67019 -18.5045
1 12.0796 4.56819 -19.1073
2 -11.3344 9.78674 -16.6042
3 -7.57552 7.55368 -18.5543
3 -4.0428 7.54071 -18.796
1 -0.150582 7.32988 -18.7238
3 3.8542 7.44307 -18.7846
2 7.83693 7.99199 -17.9014
3 11.4514 7.2772 -18.8083
2 -7.67666 11.2636 -18.799
1 -3.89281 11.1948 -18.9123
2 -0.205812 11.0525 -18.8277
2 4.01708 11.1025 -19.2034
1 7.76319 10.5203 -18.3604
2 -7.74143 -15.0465 -14.4178
3 -3.78011 -15.132 -14.6294
3 -0.0874018 -13.1383 -12.9349
3 -11.3184 -11.2364 -14.8069
1 -7.62091 -11.4911 -14.9233
2 -3.77223 -11.3995 -14.7855
3 -0.0316289 -11.4098 -14.8152
2 3.81265 -10.919 -14.898
2 11.3619 -11.3825 -15.0578
1 -14.4148 -7.05336 -14.6317
2 -10.4192 -7.34351 -15.295
1 -7.68988 -7.57278 -15.0724
2 -4.00613 -7.81232 -14.9031
1 -0.167346 -7.53736 -14.7783
1 3.75559 -7.48218 -14.9404
2 7.76238 -7.55658 -14.6415
2 11.1997 -7.40134 -14.8576
1 14.9559 -8.09216 -14.8872
2 -14.2356 -4.39267 -13.959
3 -10.7906 -3.0489 -14.7853
2 -9.41608 -4.99172 -14.111
1 -3.02556 -3.45705 -14.0639
1 -0.335553 -3.63629 -14.6817
3 3.85939 -3.7368 -14.9361
2 7.46687 -3.70378 -14.787
3 11.325 -3.64144 -15.1771
2 15.1827 -3.98729 -15.3711
3 -14.5587 0.353337 -14.6077
2 -10.9843 -0.662043 -15.5008
3 -3.8975 -0.0133273 -14.9789
3 -0.120567 -0.13058 -14.9781
1 3.72633 0.0208055 -14.8796
2 7.38866 0.0677442 -14.871
1 11.4587 -0.458263 -14.0577
2 13.61 -0.0350908 -12.9054
3 -14.5777 3.37362 -14.8225
2 -10.3424 3.63207 -14.7373
2 -7.73174 3.8395 -15.2752
2 -3.883 3.76603 -15.0336
1 -0.406092 3.68392 -15.2425
2 3.8206 3.79107 -14.9238
3 7.48805 3.95523 -14.6677
1 11.4687 4.06193 -14.8531
3 -14.6975 7.87427 -14.8941
3 -11.179 7.65487 -14.9237
1 -7.40142 7.63614 -14.9768
2 -3.88307 7.61508 -15.02
2 -0.136829 7.54768 -14.9151
1 3.64866 7.43421 -15.0695
3 7.61969 7.58284 -15.3016
3 11.8223 7.14149 -14.7065
1 -11.1791 11.4062 -14.7912
1 -7.63928 11.3448 -14.9743
1 -3.67938 11.3501 -15.006
2 3.82876 11.1655 -15.1995
2 7.33341 10.8893 -15.2177
3 11.0249 9.52989 -14.652
3 -7.43256 14.8348 -15.0793
3 -3.69672 15.0587 -15.2702
2 -7.69012 -16.9791 -9.82241
3 -3.67426 -18.7559 -11.1132
3 7.84758 -18.3858 -11.3117
3 -11.9882 -14.9643 -11.4086
2 -3.67132 -15.0295 -11.2469
2 1.94639 -13.2318 -11.1336
3 3.71919 -15.2422 -11.3302
1 7.73754 -14.4371 -11.3
2 -14.909 -10.9169 -11.5707
3 -11.3516 -11.0468 -10.8631
2 -7.53807 -11.1622 -11.227
3 -0.0447457 -11.4744 -11.1871
3 3.75327 -11.1498 -11.0452
2 7.24365 -11.2751 -11.0012
3 11.4345 -10.9493 -10.7852
1 14.9515 -11.3354 -11.3308
2 -18.6944 -7.21571 -11.8107
1 -14.6791 -7.14122 -11.9978
2 -11.0208 -7.03378 -11.1755
1 -7.36296 -7.95412 -10.8694
2 -0.223373 -7.54419 -11.3325
1 3.79723 -7.3294 -11.2575
2 7.54753 -7.41095 -10.9541
3 11.5979 -7.38826 -11.1264
2 15.3292 -7.22495 -11.3518
2 18.2206 -7.48554 -10.9061
2 -18.7598 -3.49901 -11.3739
2 -14.8488 -3.70299 -11.3259
2 -11.0029 -3.41584 -12.3169
2 -7.61207 -3.84636 -11.1908
2 -3.71757 -3.82187 -11.4279
2 -0.0791529 -3.81107 -11.2434
1 3.60735 -3.6065 -11.2467
1 7.35862 -3.70871 -11.0756
2 11.1918 -3.83624 -11.2177
1 19.0768 -3.58955 -11.7875
3 -18.6265 -0.023357 -11.6096
2 -14.6603 0.202983 -11.7318
2 -11.0511 -0.193448 -11.0042
1 -3.90931 0.0719125 -10.9937
3 -0.034188 -0.00941948 -11.2878
3 7.49782 0.105335 -11.1485
1 11.3231 0.0906168 -11.3462
2 -18.3649 3.83953 -11.5301
2 -7.97301 3.85888 -11.0492
2 -3.8153 3.72091 -11.174
2 3.80981 3.78111 -11.4007
1 7.36499 3.92682 -11.4279
3 11.3389 3.65399 -11.1058
2 15.1426 3.81483 -11.0799
2 -18.4468 7.75952 -11.5625
2 -7.53094 7.74806 -11.1394
2 -0.178417 7.52018 -11.2956
3 3.58259 7.65833 -11.2667
3 7.46439 7.51383 -10.9579
2 11.3338 7.66416 -10.9767
3 15.1161 7.34616 -10.9627
1 18.9779 7.45121 -11.2076
1 -11.3398 11.4093 -10.905
3 -7.81515 11.4872 -11.1469
1 0.309406 11.4887 -11.2438
2 4.14925 11.252 -11.2348
1 6.80476 11.2196 -10.9131
1 11.1904 10.8994 -11.3068
2 15.1956 11.0223 -11.6789
2 -11.2289 15.1594 -11.3441
2 -7.58015 15.318 -11.2734
2 -3.64842 15.0645 -11.3995
2 3.50461 15.4652 -11.3283
2 7.71194 14.8691 -11.9579
2 11.8475 14.8117 -11.6175
2 -3.1776 18.3222 -11.2696
3 0.270064 18.0948 -11.948
1 3.78462 18.2252 -11.5922
1 0.0628721 -22.1403 -7.58151
2 -11.6445 -18.9065 -7.28499
2 -7.6669 -18.7199 -7.69846
2 -3.72085 -19.0666 -7.75989
2 -0.479264 -18.8257 -7.60085
1 3.74999 -19.531 -6.37193
2 -15.0334 -14.5582 -7.20847
3 -11.3412 -15.1243 -7.49564
3 -3.73464 -15.1902 -7.41832
2 0.312136 -15.9605 -7.41105
2 2.97409 -15.3575 -7.34592
2 10.9105 -14.9127 -7.25832
1 14.8272 -14.9864 -7.58497
3 -18.1056 -10.89 -7.68188
3 -11.5544 -11.1304 -7.85556
3 -7.50466 -11.3272 -7.4755
2 -3.83985 -11.5648 -7.30931
2 -0.189079 -11.4103 -7.53618
1 8.04509 -11.4008 -7.15232
2 11.6133 -10.8039 -7.97556
2 14.8792 -11.1378 -7.21006
1 18.2158 -11.3162 -7.20991
2 -18.2548 -7.11625 -7.68106
3 -14.5041 -7.43922 -7.55656
2 -11.8956 -7.40697 -7.19777
1 -7.42971 -7.63461 -7.57531
1 -3.81991 -7.54531 -7.42163
2 7.47651 -7.29415 -7.45183
3 11.196 -7.41537 -7.48516
2 15.1161 -7.24414 -7.59841
2 18.4491 -7.3262 -7.51086
1 -19.0006 -3.88327 -7.80663
3 -15.1759 -3.63784 -7.56277
1 -11.1626 -3.53542 -7.56797
2 -7.37431 -3.60196 -7.39126
2 -3.7693 -3.84143 -7.57043
2 -0.150459 -3.85566 -7.59106
3 3.63597 -3.8607 -7.34997
2 7.58568 -3.66856 -7.37108
1 11.3011 -3.62891 -7.5823
3 15.0102 -3.52083 -7.48544
2 18.835 -3.27003 -7.45093
2 -20.5455 1.82067 -7.80595
1 -18.7457 0.146242 -7.62443
2 -14.9955 -0.138248 -7.7774
3 -7.44109 0.0915596 -7.29245
1 -3.783 0.192323 -7.37052
2 -0.169797 -0.00301529 -7.54936
2 3.61536 -0.098936 -7.474
1 7.45627 -0.0523569 -7.3056
2 11.2694 0.0858359 -7.49308
1 14.9079 0.220841 -7.45092
3 18.785 0.130954 -7.44888
2 21.0132 -0.809534 -6.63642
3 -14.8341 3.7525 -7.82517
2 -11.2975 3.60928 -7.34772
3 -7.77115 3.74019 -7.39568
3 -3.88611 3.77896 -7.48597
3 -0.111891 3.77111 -7.64071
2 3.76239 3.59829 -7.61495
1 7.35061 3.88438 -7.46581
1 11.2755 3.75786 -7.26731
2 14.7643 3.27572 -7.13133
3 18.4561 3.67499 -7.15968
1 -18.0987 7.34227 -7.769
1 -13.8998 8.07102 -8.13656
2 -11.1974 7.65525 -7.39629
2 -7.41364 7.46496 -7.23689
3 -3.81188 7.58737 -7.51308
2 0.00638339 7.47796 -7.413
1 3.65046 7.46293 -7.42838
2 7.27354 7.45817 -7.58139
2 11.0255 7.54201 -7.23583
3 14.9508 7.42971 -7.31171
3 18.8803 7.60759 -7.19068
3 -18.2968 11.2104 -7.59297
2 -11.0637 11.5942 -7.11121
3 -7.32948 11.6064 -7.52814
1 -0.0298828 11.3727 -7.41666
2 3.9421 11.2879 -7.55709
3 7.30616 11.1982 -7.49415
2 10.9876 11.0572 -7.42619
2 14.9207 11.0602 -7.42722
1 18.3704 11.1365 -7.65415
2 -14.9807 15.1497 -7.40685
3 -10.9722 15.4067 -7.24783
2 -3.63545 15.0541 -7.63515
1 0.0266956 15.1256 -7.53892
1 3.76268 15.5296 -7.24129
3 7.35034 15.0326 -7.72117
2 11.1015 15.1266 -7.33265
3 14.9214 14.7873 -7.4372
1 -10.3523 17.8083 -7.35763
1 -7.85995 18.7351 -7.4331
2 -0.358445 19.1339 -7.76402
2 3.15629 19.1185 -7.71833
2 7.43143 19.0063 -7.57636
3 11.1605 18.5105 -8.30641
2 -4.03252 -22.668 -3.73297
2 0.401745 -22.0978 -3.93383
2 3.05459 -22.525 -3.96759
2 -11.0615 -18.8931 -3.93889
1 -3.98257 -18.9758 -3.75712
3 -0.25814 -18.9158 -3.84823
2 3.81003 -18.7877 -3.74287
2 7.70499 -18.8998 -3.79305
2 11.5023 -18.7049 -3.5702
2 -11.2662 -14.8034 -3.68983
3 -7.58162 -15.1052 -3.92279
2 -3.91092 -15.3216 -3.64565
2 -0.110437 -15.0111 -3.67851
1 3.50113 -15.1945 -4.0347
2 14.9717 -14.5914 -4.00038
1 -18.5748 -11.1877 -4.30938
2 -14.8325 -11.0587 -4.00507
3 -11.3208 -11.3217 -3.65915
2 -7.99604 -11.499 -4.0848
1 -3.71688 -11.2331 -3.6567
2 3.54687 -11.2809 -3.95662
3 7.36921 -11.2367 -3.77012
3 11.0752 -11.0592 -3.79787
1 15.0673 -9.81826 -2.50093
1 -18.6221 -7.3485 -3.97135
1 -11.3637 -7.46622 -4.09117
1 -7.60056 -7.45593 -3.79078
3 -3.74011 -7.5034 -3.69788
2 -0.140381 -7.68554 -3.72717
3 3.45271 -7.49219 -3.71666
1 7.25178 -7.55716 -3.7966
3 14.7579 -7.57467 -3.98271
3 19.0869 -7.45629 -3.95772
1 -22.5862 -3.80249 -3.67267
2 -18.5423 -3.72791 -3.8847
2 -15.1909 -3.60823 -3.71505
3 -11.359 -3.74943 -3.69811
2 -7.56232 -3.67578 -3.66018
2 -3.66545 -3.84411 -3.55749
2 7.33389 -4.00394 -3.77037
1 11.1662 -3.80264 -3.87928
3 14.8661 -3.53116 -3.75235
3 18.6168 -3.56091 -3.81913
3 22.4927 -3.48454 -3.75205
2 -22.2837 0.742759 -3.84511
3 -18.3108 0.773925 -4.02219
1 -14.961 0.140601 -3.91527
1 -11.4356 -0.11005 -3.80193
3 -7.66899 0.148089 -3.48635
3 -3.81763 0.158505 -3.63524
2 -0.104343 0.0444601 -3.71135
3 3.661 -0.114624 -3.79723
3 7.22954 -0.175486 -3.68211
1 11.0917 -0.0715101 -3.56291
3 14.9027 -0.223587 -3.54971
2 18.6291 0.216531 -3.61925
1 -22.3074 4.2262 -3.63668
2 -17.8644 4.61718 -4.14454
2 -15.136 3.62426 -4.01992
3 -11.3703 3.71965 -3.82702
2 -3.4088 3.788 -3.41937
1 -0.44922 3.99799 -3.66185
1 7.27358 3.72946 -3.64674
2 11.1726 3.63946 -3.6605
2 14.9294 3.48163 -3.57881
2 18.6104 3.84645 -3.55584
3 -17.7058 7.23037 -4.25284
2 -13.2022 7.51314 -1.91294
1 -11.313 7.59691 -3.8191
2 -7.29563 7.21005 -3.68457
1 -3.36171 6.96532 -3.36698
3 -0.0450024 7.44965 -3.83135
1 3.65241 7.49866 -3.82842
3 7.43896 7.48823 -3.6472
1 11.0854 7.38528 -3.44832
2 14.8723 7.36704 -3.65262
1 18.3917 7.28735 -3.49834
2 -17.6697 10.6677 -3.48816
1 -15.0289 11.5482 -3.45211
2 -11.0172 11.3645 -3.67705
3 -7.40576 11.2292 -3.55319
1 -0.047335 11.4498 -3.71256
3 3.65414 11.1336 -3.71878
3 7.19501 11.1495 -3.63733
3 10.9828 11.5048 -3.58835
2 14.9506 11.26 -3.61579
3 18.3144 11.2635 -3.57812
2 -11.3238 15.3981 -3.29463
2 -7.15207 14.9004 -3.59897
3 -3.77168 14.746 -3.80342
2 -0.227724 15.1331 -3.74062
2 3.61847 15.0287 -3.71663
1 7.29463 15.0661 -3.74606
1 11.051 15.1101 -3.6674
2 14.8482 14.9037 -3.79322
2 -10.6212 18.1083 -3.14403
2 -8.59131 19.6545 -2.39592
2 -4.18256 18.6774 -4.43425
1 -0.232164 18.7441 -3.55293
2 3.69571 18.7841 -3.9243
3 7.22091 18.8296 -3.71886
2 10.9791 18.7214 -3.90601
3 -4.25657 20.0489 -2.16077
1 -0.624248 22.455 -3.49545
3 4.14274 22.8243 -3.98163
3 -3.78107 -22.3513 0.100618
1 -0.0645419 -22.3316 0.500761
2 3.46807 -22.5074 0.00949416
2 7.64203 -22.2017 -0.105957
1 -12.0533 -19.2107 -0.889928
3 -7.7032 -18.7501 -0.0900648
1 -3.84173 -18.8211 0.130548
1 -0.122787 -18.7892 0.17189
2 3.6342 -18.7141 -0.0553193
3 11.399 -18.8424 -0.0560811
3 -15.0683 -15.1594 -0.75666
1 -11.2829 -14.8962 -0.218689
2 -3.96678 -15.0652 -0.174612
3 -0.043593 -15.3552 -0.119735
3 3.78336 -15.1177 -0.00844174
1 11.1419 -15.0678 -0.0450184
2 14.8944 -14.9455 -0.336925
1 -18.8506 -11.6639 -0.231419
1 -15.3675 -11.2194 -0.0943277
1 -7.81696 -11.4886 -0.0164166
2 -0.171123 -11.4303 0.137907
2 3.61649 -11.3525 -0.085734
1 7.55222 -11.3126 -0.149659
2 11.2514 -11.252 -0.176609
2 14.9723 -11.0293 -0.290007
2 19.5379 -11.2823 -0.448792
1 -21.6911 -7.60122 0.559211
2 -18.7392 -7.32847 -0.0663971
1 -15.0889 -7.29627 -0.186234
2 -11.3592 -7.43126 -0.0543618
3 -3.91103 -7.57558 0.0717692
2 -0.227459 -7.39295 0.40553
2 3.56708 -7.51217 0.0373058
2 7.3313 -7.50228 0.0154247
2 15.026 -7.44578 -0.179055
2 18.7213 -7.4068 -0.444177
2 -22.6442 -3.8133 -0.66697
1 -18.753 -3.54702 -0.234133
3 -15.0138 -3.55534 0.0711151
2 -7.57926 -3.66318 0.0300568
3 -3.85484 -3.76928 0.114307
2 3.40922 -3.70088 0.106251
3 7.32123 -3.87636 0.0694239
2 11.1453 -3.80301 -0.302104
1 14.9953 -3.6845 -0.206519
3 18.6603 -3.72408 -0.255843
3 22.3625 -4.15204 -0.102528
2 -22.1961 0.235445 -0.613754
2 -18.7071 0.133472 0.0944287
2 -15.3118 0.10315 -0.0755363
2 -11.4418 0.156754 0.106743
1 -7.58307 0.0754273 0.0633754
2 -3.58457 -0.339375 0.227103
2 3.58597 -0.12269 -0.073564
1 6.69416 0.363971 0.0274617
2 11.1513 -0.231638 -0.0812089
2 15.0408 -0.0983445 -0.147854
3 22.0714 -0.124671 0.116365
1 -21.9292 3.86416 0.203768
2 -18.6941 3.98352 -0.0249489
3 -15.0787 3.83141 -0.0424932
1 -11.4964 3.74806 -0.0429509
3 -3.46477 3.38131 0.0775692
1 -0.36114 3.81012 -0.20374
2 7.57348 3.56128 -0.141995
1 18.7048 3.65835 0.212337
1 22.3879 3.5336 0.150361
3 -14.8567 7.75078 0.134373
3 -11.2008 7.42938 -0.102312
2 -7.55617 7.18465 0.0156538
1 3.53073 7.47992 0.00119699
2 7.39245 7.47297 -0.0720567
1 11.1564 7.16687 -0.163865
3 14.9917 7.63746 0.165059
2 18.7926 7.7924 -0.00437309
3 -18.4588 11.352 1.04014
1 -14.853 11.696 -0.330737
3 -10.9731 11.0354 0.0312125
2 -7.63276 11.106 0.163618
1 -3.59871 11.0903 0.0538542
3 0.0676981 10.9514 0.0352544
3 3.77878 11.2758 -0.0805034
1 7.37573 11.2006 0.0668844
2 10.9542 11.3118 0.0835983
2 18.754 10.8638 0.0319611
2 -14.5595 14.8569 0.85168
2 -10.7446 15.4469 -0.49233
2 -7.84201 14.9339 -0.343365
2 -3.70503 14.82 0.161243
2 3.66031 14.9585 0.00454165
1 7.2346 15.1752 -0.0663399
3 11.0888 15.2552 -0.039003
1 14.6849 15.3709 -0.222143
3 -11.1233 19.4489 0.78503
2 -7.99639 17.5788 1.2335
2 0.0332001 18.5266 -0.0729074
1 3.78547 18.8797 0.162297
1 6.77131 19.147 0.337835
3 -6.47062 19.8121 -0.855828
2 -4.50821 21.6264 -0.280745
2 0.194414 22.7903 -0.198032
2 4.34234 23.5283 -1.28526
2 3.78024 -22.2708 3.57388
3 -11.37 -18.6931 3.5107
1 -7.77163 -18.7587 3.90623
1 -3.6732 -18.6738 3.6346
1 0.0626033 -18.7482 4.01225
2 3.45582 -18.9795 3.91612
3 7.64758 -18.7211 3.48177
2 11.7472 -18.8563 3.99967
2 -15.0524 -15.1084 3.3579
3 -11.5633 -14.8843 3.67293
2 -4.08631 -14.7537 4.03216
2 -0.0098702 -14.9932 3.81488
2 3.90356 -14.9855 3.67798
3 7.44659 -14.9771 3.53378
1 11.2142 -14.9446 3.46515
3 15.197 -14.9084 3.83266
1 -18.6255 -11.2998 3.52779
2 -15.2554 -11.1631 3.55722
1 -11.4485 -11.4191 3.62641
1 -7.57226 -10.9817 3.71853
1 -3.85964 -11.568 3.66171
1 3.92322 -11.4814 3.76671
1 7.44371 -11.4285 3.68071
3 11.2449 -11.3714 3.6439
3 15.2915 -11.1101 3.56895
2 18.8736 -11.3613 3.94872
2 -15.1265 -7.60151 3.57333
2 -11.4369 -7.80809 3.7969
2 -7.40163 -7.48938 3.54537
3 -3.97257 -7.58884 3.71794
2 -0.142469 -7.48281 3.95196
2 3.6778 -7.51674 3.8654
1 10.9917 -7.33227 3.55127
2 14.8789 -7.42547 3.56614
2 19.0124 -7.58316 3.5973
1 -22.0222 -4.6447 3.75459
3 -18.6965 -3.70287 3.54369
2 -14.7296 -3.71265 3.91335
1 -11.2964 -3.81898 3.75674
2 -7.76379 -4.0235 3.60159
2 -3.64187 -3.69204 3.76883
2 -0.463903 -3.77207 3.64055
1 11.0012 -3.86485 3.65255
2 15.0508 -3.84646 3.65122
2 18.733 -3.83181 3.59117
2 22.8987 -3.83172 3.5568
2 -22.4192 0.0721763 3.75943
3 -18.6771 0.153582 3.64288
1 -15.0222 0.0277583 3.8925
2 -11.1476 -0.0014753 3.69753
1 -7.74655 -0.528879 3.65794
3 -4.01723 -0.113735 3.74246
2 -0.00709161 -0.151486 3.68392
3 3.6389 -0.238764 3.74423
1 7.14051 -0.0676073 3.60712
2 11.2357 -0.237979 3.40308
2 14.9272 -0.0971954 3.71471
2 18.5242 -0.277414 3.6661
1 21.9691 0.088314 3.44917
2 -19.0895 3.77207 3.83462
2 -14.9794 3.69367 3.5996
2 -7.469 3.59233 3.94409
2 0.0312507 3.52708 3.80618
3 3.7067 3.56287 3.81185
2 7.30195 3.69856 3.67758
2 11.2177 3.50838 3.51052
3 18.3206 3.65319 4.40273
2 22.4537 3.58839 4.02741
1 -18.3034 7.63458 4.28084
1 -11.2241 7.22259 3.82722
2 -7.52603 7.43432 4.0127
3 -3.88332 7.42965 3.84687
2 0.4319 7.45196 4.1417
1 3.68912 7.3146 3.92932
2 8.10932 7.96391 3.96844
1 10.7074 7.43688 3.85761
1 14.9611 7.52738 3.5488
2 18.7608 8.43787 3.66464
2 -18.8189 11.9371 4.96189
2 -14.1831 11.0924 3.9387
1 -10.3789 11.545 4.42512
2 -3.62486 10.9906 3.80449
3 0.136211 11.1288 3.90439
3 3.82579 11.1345 3.77191
2 11.0577 11.2514 3.66465
2 14.8469 11.4897 3.55728
2 18.9631 11.9509 3.5441
2 -10.3339 15.2116 4.23082
1 -7.58045 14.797 3.7965
1 -0.0466435 14.9385 3.86354
2 3.61398 15.1267 3.80399
3 7.31443 14.9602 3.81058
2 11.1697 15.3391 3.62824
2 15.0245 15.626 3.54146
1 -7.07996 20.2479 3.76637
3 -4.11606 18.4265 3.62645
1 0.278643 19.4663 3.91685
1 2.93257 19.4046 4.15663
3 7.38851 18.9051 3.74183
1 11.067 19.2145 3.58332
3 -2.68225 21.995 3.49736
1 -0.29652 -22.4103 7.67579
2 -11.1922 -18.6209 8.19759
3 -7.86455 -18.6589 7.52154
1 -3.9113 -18.5806 7.66105
1 7.35301 -18.6679 7.66403
2 11.3609 -18.6802 7.03781
3 -14.4668 -14.8488 7.63257
3 -7.68387 -14.865 7.44198
3 3.78872 -14.9779 7.5573
2 7.65336 -14.8447 7.45772
2 11.3887 -15.1717 7.41765
3 -18.0279 -11.6717 7.87918
2 -11.4007 -10.8596 7.28096
2 -7.68115 -11.3145 7.52252
1 -3.84829 -11.5106 7.65207
1 -0.0478189 -11.3372 7.54243
3 3.80209 -11.2417 7.5556
3 7.522 -11.4037 7.42067
3 11.3229 -11.069 7.411
3 15.0278 -11.2376 7.412
1 18.7557 -11.1314 7.65312
3 -15.1251 -7.43641 7.43618
1 -11.4112 -7.56177 7.30116
2 -7.35306 -7.42102 7.44865
2 -3.95468 -7.67019 7.49023
2 -0.0521331 -7.58119 7.58976
3 7.4603 -7.53188 7.44849
2 14.8386 -7.32658 7.40084
2 18.8656 -7.42421 7.50518
1 -18.7463 -3.74095 7.46493
1 -11.1727 -3.91596 7.44698
3 -7.45045 -3.99307 7.5187
3 -3.77572 -3.73882 7.65895
2 0.0878713 -3.93775 7.40619
1 3.70592 -3.81841 7.3834
1 11.2015 -3.71205 7.34459
1 15.1013 -3.74021 7.56829
2 18.6601 -3.84269 7.54699
2 -22.424 -0.0865595 7.15877
2 -14.8622 0.0434449 7.42175
3 -11.2281 -0.329312 7.49334
3 -7.46318 -0.229948 7.52174
3 -3.64179 -0.0698872 7.25743
2 -0.0847912 -0.204659 7.43308
3 3.51417 -0.121567 7.33619
2 7.41282 -0.109627 7.39996
1 11.4151 0.225229 7.26157
3 15.0218 -0.100453 7.45342
1 18.7087 0.374049 7.05839
2 -18.6677 3.86994 7.67001
2 -14.7511 3.59649 7.6463
3 -11.3206 3.71561 7.69299
2 -7.45608 3.9319 7.76931
2 -3.53343 3.67468 7.60604
3 -0.0900557 3.51618 7.43511
3 3.76455 3.52264 7.49979
2 11.1704 3.56035 7.21332
2 15.1245 3.81226 7.20795
1 -18.4383 7.60424 7.0009
2 -14.1603 7.62952 7.86612
3 -11.407 7.27702 7.34599
3 -7.73187 7.31957 7.59494
1 -3.3156 7.18781 7.25166
2 3.81765 7.75244 7.28951
1 10.7613 7.59609 7.14843
2 15.0217 7.52959 7.18842
1 -17.6452 11.6744 7.14043
2 -14.4994 11.2735 7.53461
3 -10.4536 11.2034 7.03839
1 -3.79669 11.0329 7.54835
1 0.330028 11.0624 7.44687
3 3.87561 11.3805 7.4529
2 7.475 11.4853 7.65979
2 17.9065 11.7333 7.45034
2 -14.5996 15.7122 8.01346
2 -10.0495 14.2186 8.62179
2 -5.71966 13.0141 7.38978
2 -3.88465 14.8719 7.44708
2 0.0171617 14.8768 7.67378
1 3.7582 15.0303 7.54645
2 7.49325 15.0416 7.47587
2 11.3916 15.453 7.19979
1 14.2249 15.6443 7.71137
2 -11.1667 19.083 8.26687
2 -3.4565 18.9808 6.61897
3 4.05605 18.9963 8.01001
1 10.8165 19.3087 7.64662
3 -7.25972 -18.5472 11.5231
2 -4.75021 -18.7547 11.5949
2 4.17974 -18.9132 11.2104
1 8.2796 -18.6998 11.0762
3 -11.6682 -14.6653 11.4131
2 -8.04581 -14.9845 11.1355
1 -3.50421 -14.3525 11.7302
1 3.90937 -14.9894 10.9773
2 7.70573 -14.9426 11.0658
1 11.3884 -15.084 11.1009
2 -14.6505 -10.1439 11.761
3 -11.3398 -10.8954 10.9137
2 -3.83026 -11.8372 11.3509
3 -0.0504152 -11.3328 11.3431
3 3.78423 -11.4244 11.3488
1 7.58805 -11.3256 11.3444
2 11.273 -11.1662 11.2264
3 14.6913 -11.0496 11.2682
1 -17.0128 -8.93065 11.2985
3 -11.2861 -7.43346 11.2763
1 -7.56911 -7.72664 11.3234
2 -3.81271 -7.75517 11.2729
2 0.0332344 -7.65949 11.3749
3 3.72048 -7.64465 11.1656
3 7.55856 -7.64701 11.2203
3 11.2679 -7.28076 11.3244
1 18.5848 -7.73539 11.2068
1 -15.1338 -3.88911 11.292
2 -11.2706 -3.80687 11.4181
3 -7.56502 -3.79224 11.3122
2 0.0418865 -3.88868 11.3945
2 3.83822 -3.63219 11.1556
2 7.2033 -3.61659 11.128
1 11.272 -3.60754 11.2219
2 15.0085 -3.74517 11.2782
1 18.6088 -3.73455 11.5198
3 -18.5771 0.0141481 10.9619
1 -15.1069 -0.353894 11.2725
3 -11.1993 -0.153191 11.2507
2 -7.53263 -0.0108691 11.2198
2 -3.92933 -0.0547256 11.3271
2 -0.061546 -0.0135269 11.2704
2 3.66596 0.0429602 11.1546
2 7.63332 0.139392 11.2121
3 11.0643 0.0972901 11.1784
1 -19.3549 3.88691 11.801
3 -14.8401 3.47023 11.3899
3 -11.2235 3.50614 11.3735
3 -7.58471 3.67534 11.1668
3 -3.72934 3.79303 11.3269
3 0.11561 3.8329 11.3184
2 7.615 3.68494 11.2017
2 11.901 3.55523 11.4323
2 14.7943 4.0533 10.8751
1 18.8371 3.83163 10.8233
2 -18.4636 8.25628 11.1024
2 -14.6822 7.32223 11.1235
3 -7.93868 7.24017 11.0875
1 -4.01883 7.41189 11.1297
1 0.0724326 7.38676 11.1659
2 3.86769 7.66059 11.4451
1 7.31396 7.63276 11.1879
1 11.2007 7.81118 10.8635
2 15.0168 7.57965 10.9862
1 18.2198 8.02827 10.8542
2 -15.067 11.6739 11.6146
2 -11.7613 10.1916 10.5139
3 -7.64013 11.3275 11.2421
2 -3.82348 11.0842 11.1876
2 -0.158189 11.141 11.2427
1 7.34065 11.3846 11.1852
3 11.413 10.9385 11.2076
1 -11.2375 15.3006 11.5408
1 -7.2076 15.4578 11.0602
3 -3.74725 14.7263 11.294
3 0.0137922 14.8907 11.2753
2 3.67368 15.0101 11.3541
2 10.8511 15.7056 11.4433
2 -7.01289 18.3042 10.8628
1 -2.55278 18.2692 11.4737
1 0.058597 18.8498 11.2643
2 3.42823 18.6348 11.5493
1 7.67632 18.4286 11.5467
1 -7.71037 -14.836 14.8762
2 -3.16142 -15.5538 15.1728
1 3.59653 -15.7453 15.0749
2 7.90824 -15.0084 14.9
2 -11.61 -11.967 15.8944
1 -7.46379 -11.2902 15.1183
3 -3.71208 -11.0589 14.8143
1 0.163326 -11.4422 15.0321
2 4.24797 -11.2598 15.1893
2 9.88601 -8.26279 15.4032
1 -14.0781 -7.21628 15.0053
3 -11.4109 -7.64088 15.0406
2 -7.74623 -7.71887 14.9111
3 -0.0160151 -7.46849 14.8124
1 3.803 -7.56084 14.9474
3 7.46278 -7.41127 14.8933
2 14.7802 -7.12618 15.2021
2 -15.116 -4.05879 15.0037
3 -11.1543 -3.80446 15.0628
2 -7.62567 -4.07636 15.0638
1 -0.107072 -3.70033 14.7488
3 7.51225 -3.60486 14.7201
2 11.1685 -3.84686 15.0485
1 15.2464 -4.54966 15.4383
3 -15.3027 -0.17744 14.7842
3 -7.49194 -0.0973302 15.0545
2 -3.92877 -0.109411 14.9565
2 0.0205361 -0.0260414 14.9964
3 3.69045 -0.213632 14.8996
2 7.2897 -0.145898 14.9705
3 11.2419 -0.0125998 15.0074
3 -15.1402 3.16055 14.9507
2 -11.2823 3.36966 14.8886
2 -7.54756 3.67992 15.123
1 -3.8189 3.69386 15.093
1 0.079558 3.66497 15.0812
2 3.8211 3.61746 15.0772
1 7.57114 3.74058 14.9944
2 11.2191 3.68019 14.9888
2 14.9705 3.67332 14.5192
2 -14.2529 7.57732 14.2563
1 -11.5017 7.16918 14.9408
2 -7.75061 7.50549 14.9123
2 -3.82593 7.43384 14.9356
2 -0.091871 7.51957 15.0491
2 3.82606 7.45373 15.2414
2 7.64226 7.60447 15.0821
1 11.375 7.7689 15.0514
2 15.6768 8.12989 15.5409
2 -11.2122 11.6926 15.0889
2 -7.78885 11.2811 15.3073
1 -3.81219 11.2353 15.0668
1 0.0121289 11.3206 14.9553
3 3.71687 11.1921 15.1053
3 11.275 11.0491 15.0836
3 -7.31809 14.8527 14.6297
2 -3.80303 14.9553 15.0033
3 -0.29701 14.774 14.8657
2 7.40372 14.9756 14.9618
2 -7.26055 -11.1524 18.6769
2 -3.69976 -12.288 18.2582
1 1.08987 -12.2362 19.5268
3 4.47329 -10.7927 19.0123
2 -11.2833 -7.57142 18.8321
2 -7.65641 -7.62991 18.6674
1 -3.62877 -7.24886 18.5558
2 -0.0441511 -7.56996 18.6328
1 4.27782 -6.78246 18.7618
3 8.5552 -6.5205 16.8439
2 10.5516 -7.67976 17.9507
3 -11.2139 -4.19626 18.9163
2 -7.54789 -3.95489 19.0376
2 -3.60217 -3.80001 18.7365
3 -0.116424 -3.69768 18.8341
3 3.80904 -4.11197 18.7291
1 7.66923 -3.95374 18.7211
2 11.7643 -3.48152 18.8723
2 -11.1458 0.0148629 19.3947
1 -7.53608 -0.173259 18.7876
2 -3.95706 -0.0362686 18.9607
2 -0.108742 0.0972494 18.9423
3 3.62515 -0.111208 18.7448
2 7.59608 -0.317063 18.8797
3 11.5618 -0.542341 18.7434
1 -11.4287 3.74806 18.8823
3 -7.59143 3.48819 18.7192
1 3.90694 3.99023 19.1011
2 11.3962 3.87678 18.663
2 -11.4839 7.23065 18.8039
2 -7.49597 7.35545 18.867
1 -4.07748 7.36515 18.8692
3 7.59567 7.51211 18.7567
2 11.4319 7.46972 18.8182
2 -7.66406 10.9698 18.7225
1 -3.7391 11.2698 18.7037
2 -0.337257 11.4135 19.0377
1 3.84814 11.162 18.8893
2 7.51868 11.3588 18.7551
3 -0.161332 -7.77788 22.2189
3 -3.50368 -3.87572 22.531
2 -0.0901946 -3.42525 22.8042
1 3.22668 -3.93125 22.4126
2 -7.49773 -0.103864 22.6977
2 -3.60534 0.0966354 22.6238
2 0.00407209 -0.0419998 22.4866
2 3.80557 -0.0171105 22.3567
2 7.79425 0.00896304 22.1462
2 -4.01917 3.64001 22.4844
2 0.199642 3.80899 22.5787
1 5.93401 3.97701 21.0408
2 -5.26293 -6.43071 -22.4933
2 -2.5902 -6.624 -22.7408
3 4.65998 -5.46376 -20.6192
2 -5.49818 -2.02227 -22.6524
1 -1.64144 -2.60334 -22.6836
1 5.16018 -0.654665 -20.5983
3 -7.20939 2.2585 -20.903
2 -2.83219 1.26898 -21.5358
2 -6.65412 4.75125 -21.0868
3 -2.25714 5.37029 -22.5399
2 1.87039 5.34936 -22.282
3 7.72822 5.36926 -20.5155
2 5.50848 -13.1149 -18.4456
2 -9.32803 -9.68687 -18.6419
2 -5.57879 -9.7037 -18.6576
1 -1.79555 -9.65802 -18.8024
1 1.66834 -9.25498 -18.7121
1 8.0443 -9.61577 -16.7025
3 -12.3458 -5.74475 -18.2128
3 -8.74141 -5.72472 -18.6808
2 -2.02796 -5.65616 -18.4935
1 1.76851 -4.7706 -17.5232
3 5.62578 -5.78721 -18.3794
3 9.47825 -5.63567 -18.7766
3 12.9512 -6.08979 -18.7249
2 -12.3852 -2.03512 -18.7248
1 -5.68614 -1.66906 -18.928
3 -2.20343 -1.81456 -18.6294
2 1.75165 -2.21208 -18.3081
1 9.44814 -0.994976 -18.4376
1 12.6422 -1.93807 -18.7516
2 -12.4255 2.05585 -17.8512
2 -5.68042 1.71435 -18.8738
1 -1.87825 1.80242 -18.6603
2 1.54765 1.83631 -18.858
2 5.47963 1.49359 -19.2109
1 9.55771 1.74687 -18.3532
3 13.026 2.16207 -18.7639
3 -5.88297 5.82862 -18.7579
3 -2.18916 5.49664 -18.8493
1 5.82649 5.53265 -18.6944
2 9.29929 5.94272 -18.5448
2 13.7873 6.26121 -18.2492
2 -9.45467 7.63599 -16.9333
2 -5.61034 9.59031 -18.8104
2 -1.97849 9.24509 -18.5382
2 1.83204 8.9114 -18.7262
3 5.69684 9.11512 -18.8729
3 10.0147 9.11152 -18.8404
1 -2.09001 13.0443 -18.9299
1 1.84064 12.6876 -18.952
2 6.26876 12.4038 -18.7768
3 -5.8708 -16.8365 -14.0263
1 -1.77881 -15.2185 -13.1493
2 1.89568 -15.0226 -13.1119
1 5.65577 -16.4405 -14.9197
3 -9.5661 -13.0754 -14.6876
3 -5.70655 -13.3186 -14.8571
3 -1.67954 -13.1685 -14.8945
3 2.23239 -13.0573 -14.7657
3 5.32018 -13.0312 -14.8715
1 9.41006 -12.7051 -14.9343
1 13.2994 -12.935 -14.9288
2 -13.0742 -9.37553 -14.6881
3 -9.39541 -9.52957 -15.1422
1 -5.74041 -9.54038 -15.054
3 -1.94468 -9.4639 -14.8187
3 1.79187 -9.33909 -14.7492
3 5.73119 -9.23829 -14.8722
3 12.7648 -9.2497 -14.4969
3 -16.3311 -5.2602 -15.2975
1 -12.1349 -5.31198 -14.732
2 -2.10043 -5.70855 -14.562
1 1.72781 -5.50554 -14.9581
2 5.74059 -5.719 -14.7575
2 9.50083 -5.42583 -14.8588
1 13.195 -5.31657 -14.7544
1 16.5086 -5.99886 -14.7687
2 -16.8586 -2.38667 -15.6212
2 -13.2012 -2.05783 -15.0079
2 -8.34399 -2.0345 -15.2512
1 -5.9419 -1.68443 -14.69
3 1.74384 -1.82781 -14.9057
3 5.62539 -1.80105 -14.9691
2 9.41681 -1.93759 -14.9889
2 13.322 -1.98149 -15.0085
1 14.793 -2.53272 -13.0923
2 -16.5823 1.8177 -15.3036
2 -12.5339 1.81899 -15.1011
2 -8.51774 0.464451 -14.8005
1 -5.83981 1.75177 -14.8058
2 -2.12427 1.75898 -15.0842
3 1.85102 1.98868 -15.0417
2 5.5577 1.98309 -14.9608
1 13.1753 1.96983 -14.9819
2 16.9482 2.02072 -15.1552
2 -15.7022 5.69621 -14.4276
3 -13.1682 5.62612 -14.7933
3 -9.37722 5.92923 -15.1797
2 -5.69228 5.81503 -14.9328
1 1.75603 5.54352 -15.0754
1 5.68841 5.83827 -14.9454
2 9.53377 5.61369 -14.84
2 16.2438 6.51334 -13.9605
3 -13.0096 9.57326 -14.5634
3 -9.39293 9.42741 -14.9611
1 -5.49932 9.45464 -14.7832
2 -1.96121 9.53835 -15.0892
1 1.76122 9.40225 -14.9698
3 5.51236 9.25458 -15.0772
2 9.69943 7.56063 -13.1851
2 -9.52901 13.3714 -15.1219
2 -5.55373 13.1886 -15.0816
1 -1.99609 13.2331 -15.296
2 1.9251 13.0403 -15.3426
2 5.69985 12.931 -15.4643
1 10.1944 12.6824 -15.055
2 12.3922 11.4184 -15.4873
2 -5.56194 15.0088 -13.435
1 -1.78825 16.7662 -15.281
2 2.17664 16.5354 -15.469
1 4.31534 15.0126 -15.9304
3 -2.4777 -20.8989 -10.6292
3 1.75783 -19.2008 -10.4041
1 -9.57997 -15.3926 -10.2345
1 -5.92806 -15.0126 -9.93993
2 -3.82395 -16.8183 -9.55143
2 1.91512 -15.1101 -9.51638
2 6.12448 -16.4854 -11.012
1 9.49776 -16.6611 -11.4609
3 -13.1874 -12.8584 -11.2483
2 -9.54354 -12.9726 -11.1826
2 -5.27825 -12.7071 -11.0661
3 -1.98324 -13.1468 -11.0899
2 5.38984 -13.1604 -10.9342
1 13.0611 -13.2068 -11.1844
3 -16.4918 -8.9921 -11.7071
1 -12.8684 -8.99188 -11.2038
3 -9.57736 -9.23318 -11.058
2 -5.21883 -9.99667 -10.9471
2 1.77414 -9.41615 -11.2565
3 5.60885 -9.20641 -10.9372
1 9.61777 -9.4577 -11.2228
3 13.4224 -9.04704 -11.5408
2 16.9395 -9.71308 -11.1114
2 -16.8304 -5.49424 -11.3939
2 -12.7947 -5.28649 -11.9329
2 -5.81107 -5.72475 -11.3603
2 -2.10354 -5.85556 -11.5193
3 1.70948 -5.58411 -11.2167
1 9.26002 -5.64453 -10.832
1 13.1919 -5.48801 -11.2134
2 16.8853 -5.02725 -11.2704
2 -16.7441 -1.78754 -11.4733
3 -13.0634 -1.80568 -11.4926
3 -9.46137 -2.16822 -10.807
2 -5.61945 -1.73439 -10.9471
3 1.67494 -1.9284 -11.1336
3 5.53942 -1.73933 -11.165
3 9.33269 -1.75354 -11.1381
1 13.2745 -1.71796 -11.1742
3 16.6774 -2.26723 -11.3478
3 20.5979 -1.37874 -11.1893
3 -20.1045 2.17605 -11.4668
2 -16.8233 1.72214 -11.4509
3 -12.4829 1.90582 -11.2464
1 -9.74533 2.11881 -10.7971
3 -5.78231 2.17035 -10.9101
2 -1.87882 1.7156 -10.9988
2 2.12148 1.78675 -11.1555
3 5.49752 1.82566 -11.388
1 9.40998 1.92189 -11.2192
3 13.3592 1.71179 -11.2477
2 16.8959 1.80438 -11.1551
1 18.3035 -0.228159 -11.4466
2 -16.5154 6.02904 -11.6149
2 -12.1321 5.15759 -11.1165
3 -9.55914 5.91976 -11.2725
2 -5.7948 5.48262 -11.2333
3 -1.86477 5.54101 -11.3304
3 1.90292 5.57638 -11.429
2 5.48754 5.86026 -11.2032
2 9.24722 5.58608 -11.1684
1 13.2362 5.53512 -10.9102
2 -16.8436 9.71829 -11.7494
2 -9.43053 9.49521 -11.2469
3 -5.62182 9.38848 -11.1133
2 -2.06251 9.7228 -11.4575
1 1.80596 9.49417 -11.4905
2 5.56189 9.15177 -11.4023
2 9.25433 9.31227 -11.2478
2 13.3694 9.3997 -11.1084
1 16.9983 9.25252 -11.3511
2 -12.9781 13.2181 -11.2068
1 -5.57826 13.0486 -11.4044
1 -1.69893 13.2887 -11.4193
1 2.1066 13.3446 -11.356
1 5.48591 13.4458 -11.6113
1 8.9996 12.8696 -11.4139
1 13.02 11.1252 -9.37245
3 -9.55717 16.944 -11.2425
3 -1.50518 16.6093 -12.0253
2 9.73635 16.4896 -11.4685
2 -1.16611 19.8572 -10.927
3 1.73115 20.1125 -11.6098
1 -9.5376 -20.4539 -7.76837
1 -5.5249 -22.2128 -7.14401