1157
 Atoms. Timestep: 999
1 -0.867601 -0.601243 -13.6707
1 -3.65987 -7.55187 -10.4048
1 0.207983 -8.18679 -10.7736
1 3.97453 -7.73737 -9.9631
1 -7.59529 -4.15348 -10.5346
1 -3.39011 -3.53419 -10.2723
1 0.0845475 -3.67669 -10.3431
1 3.60436 -3.60064 -10.6152
1 7.62053 -3.98381 -9.77564
1 -8.14084 0.0368373 -10.7715
1 -3.70809 -0.0519002 -10.8637
1 0.212565 -0.177653 -10.739
1 3.57634 -0.510215 -12.5555
1 7.91732 -0.0640486 -10.6202
1 -7.55074 4.18928 -10.2506
1 -3.30587 3.88569 -10.3212
1 -0.481597 3.96311 -9.75958
1 3.15921 3.44634 -11.3244
1 7.4993 3.89445 -10.0259
1 -4.0391 8.17781 -10.3102
1 0.0543858 8.92445 -11.2514
1 4.01159 7.72655 -9.92671
1 -3.80776 -11.4047 -7.58611
1 0.0223944 -12.3191 -8.15854
1 3.89311 -11.6877 -7.40055
1 -7.21546 -7.44549 -7.45848
1 -3.71877 -7.84873 -7.2309
1 -0.0637391 -7.28337 -7.1935
1 3.74651 -7.55732 -7.31774
1 7.54447 -7.63893 -7.09161
1 -11.3941 -3.85156 -7.67604
1 -7.58119 -3.81879 -7.5604
1 -4.07149 -3.77751 -7.55667
1 0.275815 -3.58709 -7.19858
1 3.63033 -3.78683 -7.1863
1 7.32851 -3.812 -7.28551
1 11.3477 -3.93803 -7.23984
1 -11.4568 -0.296618 -7.669
1 -7.38622 -0.251344 -7.16406
1 -3.52174 0.138687 -7.30656
1 -0.0254043 0.202472 -7.29376
1 3.53245 -0.139941 -7.0119
1 7.40456 0.015453 -7.20754
1 11.9387 -0.0465563 -7.93776
1 -11.7063 4.08653 -7.81101
1 -7.54444 3.5663 -7.66058
1 -4.01099 3.60469 -7.5424
1 0.138015 3.51025 -7.50183
1 3.61536 3.52848 -7.07147
1 7.75779 3.82505 -7.45411
1 11.658 3.86585 -7.50722
1 -6.98571 7.67098 -8.06231
1 -4.54395 7.85489 -7.93585
1 -0.139486 7.97144 -6.94575
1 4.0523 7.61524 -7.47626
1 7.73133 7.51806 -7.07168
1 -3.99185 11.8869 -7.56965
1 0.0516346 12.6165 -8.34409
1 3.95546 11.703 -7.45138
2 -7.57195 -11.5896 -4.0117
2 -3.72574 -11.4995 -3.83686
2 0.0915664 -11.5487 -3.64212
2 3.78057 -11.4967 -3.646
2 7.55441 -11.4564 -3.86214
2 -11.4421 -7.77979 -4.00736
2 -7.61354 -7.73677 -3.95626
2 -3.86059 -7.70256 -3.91142
2 0.0584847 -7.62544 -3.81104
2 3.89641 -7.64692 -3.74104
2 7.80214 -7.62588 -3.93204
2 11.4482 -7.69582 -3.91655
2 -11.3937 -3.92155 -4.01425
2 -7.67658 -3.83196 -3.89693
2 -3.88223 -3.88288 -3.85401
2 0.0371982 -3.93353 -3.70583
2 3.93794 -3.89934 -3.72723
2 7.73792 -3.85711 -3.80823
2 11.4572 -3.75804 -4.00035
2 -11.5816 0.0221502 -4.04526
2 -7.70953 0.0452739 -4.09679
2 -3.76958 0.00723111 -3.87578
2 -0.00908734 -0.00405103 -3.82674
2 3.91735 -0.103286 -3.72453
2 7.63381 0.0179094 -3.71547
2 11.5459 0.0461512 -3.97497
2 -11.6025 3.88531 -4.03245
2 -7.71704 3.91839 -3.99318
2 -3.91708 3.90321 -4.03273
2 -0.0532471 3.8656 -3.78852
2 3.83953 3.90071 -3.93781
2 7.68003 3.81676 -3.83051
2 11.6729 3.86021 -3.98061
2 -11.5622 7.83824 -4.03747
2 -7.87238 7.79607 -4.01992
2 -3.94882 7.81878 -3.94466
2 -0.0438976 7.6991 -3.95393
2 3.84932 7.7319 -3.98701
2 7.95631 7.77882 -4.04074
2 11.6176 7.8176 -3.95428
2 -7.62459 11.6723 -4.2253
2 -3.85806 11.6017 -3.85879
2 -0.0101179 11.5911 -3.95827
2 3.88316 11.4955 -3.94898
2 7.70158 11.7444 -4.08117
2 0.231177 -15.5991 0.236203
2 -7.69514 -11.7862 0.0609954
2 -3.81179 -11.7122 0.114451
2 -0.00697048 -11.6008 0.150552
2 3.89706 -11.5425 0.169976
2 7.81302 -11.6664 0.0404834
2 -11.5282 -7.90161 -0.120036
2 -7.74851 -7.97659 -0.0292969
2 -3.93392 -7.77838 0.145627
2 -5.71094e-05 -7.64859 0.140614
2 3.88765 -7.73509 0.161517
2 7.76088 -7.75234 0.134459
2 11.5285 -7.6356 -0.0500914
2 -11.6631 -3.88668 -0.142112
2 -7.82433 -3.81943 0.0233248
2 -3.89197 -3.88568 0.139733
2 0.0052799 -3.86775 0.186225
2 3.98521 -3.9551 0.2022
2 7.81056 -3.98103 0.115752
2 11.6158 -3.90864 0.074884
2 -15.469 -0.00204555 -0.294464
2 -11.6925 0.0717899 -0.229418
2 -7.83879 0.0155996 -0.063564
2 -3.96225 0.0866104 -0.100357
2 0.0257635 -0.034354 0.061052
2 3.93571 0.0807054 0.0963017
2 7.83804 -0.0101625 0.0234923
2 11.638 0.0876056 -0.0621665
2 15.4918 0.013866 -0.0997964
2 -11.7671 3.95444 -0.0472977
2 -7.80152 3.99989 -0.108465
2 -3.8627 3.85559 -0.0348918
2 0.00489587 3.91836 0.0679708
2 3.93869 3.88469 0.0188761
2 7.79932 3.96632 -0.0345631
2 11.7342 3.93411 -0.0243203
2 -11.7077 7.91828 -0.027773
2 -7.7985 7.93859 -0.0423215
2 -3.90971 7.83295 -0.0543523
2 0.0910179 7.74398 -0.0122385
2 3.99954 7.75093 -0.0419014
2 7.75623 7.8949 0.010877
2 11.7289 7.81665 -0.00882223
2 -7.79653 11.8725 -0.141963
2 -3.85554 11.711 -0.0812733
2 0.023233 11.6812 -0.046425
2 3.88525 11.6371 -0.0803043
2 7.75973 11.8841 -0.0931364
2 -0.0996522 15.516 -0.118039
2 -7.85958 -11.7808 4.09306
2 -3.91883 -11.7371 4.06443
2 0.0147513 -11.4534 4.10216
2 3.84862 -11.5136 4.04209
2 7.84747 -11.4615 4.04009
2 -11.6801 -7.70555 3.85389
2 -7.75685 -7.66609 4.04791
2 -3.92507 -7.78095 4.07447
2 -0.122973 -7.73292 4.01521
2 3.87933 -7.76454 4.19516
2 7.79037 -7.67111 4.21252
2 11.7562 -7.76416 3.97127
2 -11.7778 -3.91188 3.8226
2 -7.7419 -3.88158 3.81522
2 -3.90654 -3.86397 3.95492
2 0.0568006 -3.78661 4.02907
2 3.9534 -3.83347 4.03708
2 7.79283 -3.85542 4.06655
2 11.6579 -3.82594 3.98697
2 -11.7029 0.0263713 3.86699
2 -7.85552 0.127988 3.81538
2 -3.9658 -0.0199633 3.97412
2 -0.139404 0.0800956 3.98915
2 3.96721 0.0557038 3.8776
2 7.76431 0.116563 3.97156
2 11.6586 0.0460422 3.85951
2 -11.7092 3.87914 3.88959
2 -7.8625 3.94328 3.76311
2 -3.98658 3.92759 3.94076
2 -0.0133174 3.87583 3.87726
2 3.93119 4.01605 4.05782
2 7.81038 3.993 3.95326
2 11.7192 3.90967 3.94415
2 -11.7037 7.821 3.93836
2 -7.85646 7.9376 3.93044
2 -3.98415 7.9018 3.88576
2 -0.0227073 7.79902 3.86914
2 3.86657 7.75146 3.93157
2 7.85918 7.69389 3.86197
2 11.7448 7.84398 3.82799
2 -7.83064 11.7894 3.74654
2 -3.83968 11.7327 3.89911
2 0.0158984 11.6678 3.87754
2 3.92827 11.5708 3.79653
2 7.72739 11.8059 4.089
1 -4.18531 -11.8519 7.71144
1 -0.374664 -12.127 8.47353
1 3.689 -11.4055 7.77327
1 -7.58687 -7.37439 6.95366
1 -3.69452 -7.49544 7.83677
1 -0.223323 -7.42982 7.40631
1 3.71967 -7.38701 7.21242
1 7.54113 -7.39104 7.48297
1 -11.7711 -3.96108 7.24615
1 -7.4812 -3.47717 7.34944
1 -3.78042 -3.9233 7.26112
1 -0.112927 -3.71086 7.18881
1 3.75675 -3.04982 7.60864
1 7.85052 -3.32652 7.60879
1 11.9349 -3.99795 7.10581
1 -12.1406 -0.0376294 7.93642
1 -7.47027 -0.0593668 7.30103
1 -3.62363 -0.118669 7.36168
1 0.144557 -0.214861 7.29306
1 3.48983 -0.0939477 7.86972
1 7.56244 0.170428 7.08438
1 12.3323 0.0274564 7.40108
1 -11.901 4.0323 7.76116
1 -7.6736 4.19383 7.40621
1 -3.97266 4.07374 6.94748
1 -1.09223e-05 3.72875 7.06606
1 3.81416 3.92113 6.90923
1 7.72163 4.20252 7.35275
1 11.9396 4.05389 7.09471
1 -7.86944 6.33514 8.45732
1 -3.67938 7.7065 7.31262
1 0.0397816 7.36141 7.06356
1 4.01349 7.95738 7.41179
1 8.29935 8.16487 6.06793
1 -3.96138 11.7667 7.61234
1 0.0824301 12.0368 8.16858
1 3.86448 11.4155 7.61928
1 -4.37153 -7.54595 10.1731
1 -0.445598 -8.11262 11.1626
1 3.54096 -7.65151 10.6758
1 -7.88546 -4.02117 9.94286
1 -3.69429 -3.3237 10.7447
1 -0.0721667 -3.86426 10.5373
1 4.00428 -3.69456 9.96051
1 8.32416 -3.92287 10.0414
1 -8.33048 0.0396981 10.6852
1 -3.28918 0.117037 9.77207
1 -0.0901401 1.49885 11.3659
1 3.99166 0.229067 10.3654
1 8.68001 0.173449 10.6623
1 -7.82805 4.26473 9.89338
1 -3.99957 3.08683 11.9267
1 -0.322168 3.52686 12.7435
1 3.70265 3.32171 12.0698
1 7.90059 4.14802 9.88352
1 -3.84659 7.59553 9.92439
1 -0.055092 7.73598 10.3517
1 3.87703 7.57617 10.4215
1 -0.477636 -1.20499 13.3078
1 -1.54049 -2.97947 -13.6206
1 0.423974 -2.35072 -14.7704
1 -2.5795 1.09025 -13.1099
1 -0.249509 1.23341 -12.4298
1 -1.96639 -9.22017 -10.4073
1 2.13121 -9.23243 -9.92403
1 -5.8592 -6.01715 -10.5514
1 -1.90354 -5.29254 -10.1408
1 2.09715 -5.04604 -12.1574
1 6.003 -5.97061 -9.67018
1 -9.16271 -1.99387 -10.5489
1 -5.04184 -1.84131 -12.2102
1 -1.78456 -1.77862 -10.7135
1 1.89646 -1.88197 -10.5529
1 4.94373 -2.29123 -12.284
1 9.03522 -2.03264 -9.95222
1 -8.93583 2.15611 -10.1051
1 -4.51896 1.81791 -11.7047
1 -1.87561 1.88479 -10.8344
1 3.62684 0.0556295 -10.2423
1 4.55528 1.69693 -11.6903
1 9.02345 1.85151 -9.9919
1 -6.05457 5.94616 -10.1353
1 -1.83105 6.02062 -9.99848
1 1.71961 5.13601 -10.5104
1 5.92454 5.90199 -9.81389
1 -2.02503 9.59756 -10.3105
1 1.90425 9.40636 -9.93725
1 -1.92147 -12.8612 -7.39658
1 2.0899 -13.0174 -7.26109
1 -9.34172 -10.0867 -7.71938
1 -5.51402 -9.72923 -7.52143
1 -1.55246 -9.21049 -7.33235
1 1.8965 -9.17718 -7.4306
1 5.75211 -10.4072 -7.47844
1 9.55891 -9.79125 -6.91975
1 -9.72231 -5.67536 -7.86147
1 -5.90502 -5.58577 -7.523
1 -2.05254 -5.71493 -7.5248
1 2.01246 -5.58967 -7.21285
1 5.83883 -5.86184 -7.3292
1 10.077 -5.86376 -7.39653
1 -13.1114 -2.16093 -7.72155
1 -9.41877 -2.03815 -7.27223
1 -5.74347 -2.11468 -7.39857
1 -1.76487 -1.62405 -7.24542
1 1.91832 -1.78633 -6.96826
1 5.51758 -1.96881 -7.16231
1 8.93268 -1.71651 -7.47711
1 12.8535 -2.1334 -7.22173
1 -13.2626 2.32536 -7.94319
1 -9.2293 1.55158 -7.5605
1 -5.58437 1.82358 -7.37742
1 -1.87583 1.99874 -7.48799
1 1.76037 1.87729 -7.30834
1 5.57367 1.69224 -6.94738
1 9.05511 1.78286 -7.50812
1 13.1025 1.89227 -7.28966
1 -10.0147 5.85853 -7.76071
1 -5.86839 5.38527 -7.56463
1 -2.28031 7.03737 -7.88611
1 2.04551 5.33247 -7.08071
1 5.97645 5.84772 -7.32444
1 10.104 5.81751 -7.53507
1 -9.57551 10.1597 -7.37526
1 -5.64578 9.94944 -7.53063
1 -1.95527 9.41353 -7.6075
1 1.79374 9.46569 -7.33433
1 5.83349 10.2464 -7.7322
1 9.95698 9.60066 -7.16192
1 -2.09058 13.2738 -7.32903
1 1.87174 13.0978 -7.14326
2 -5.55239 -13.3939 -4.08081
2 -1.81042 -13.4476 -3.9158
2 1.91601 -13.4147 -3.90563
2 5.62997 -13.3992 -3.91672
2 -9.48111 -9.73125 -3.96748
2 -5.63015 -9.65932 -3.93348
2 -1.85663 -9.60363 -3.851
2 1.9555 -9.53267 -3.72147
2 5.7004 -9.54365 -3.82369
2 9.61867 -9.60611 -4.13423
2 -13.3812 -5.75652 -4.14935
2 -9.51728 -5.83849 -3.98158
2 -5.7197 -5.78962 -3.81946
2 -1.93051 -5.79133 -3.81935
2 1.993 -5.68883 -3.75603
2 5.75938 -5.7715 -3.6972
2 9.6904 -5.84772 -4.09454
2 13.3165 -5.68015 -4.14691
2 -13.5085 -2.06303 -4.23484
2 -9.61421 -1.9562 -4.01648
2 -5.76806 -1.84094 -3.84251
2 -1.88226 -2.00256 -3.84849
2 1.94873 -1.90219 -3.77164
2 5.79623 -2.0451 -3.67747
2 9.56694 -1.81566 -3.94361
2 13.3828 -1.88894 -4.1499
2 -13.4978 1.86636 -4.04195
2 -9.67036 1.93753 -4.07245
2 -5.67472 1.91925 -4.03763
2 -2.02029 2.02683 -3.77261
2 1.92039 1.9073 -3.7277
2 5.75602 1.95199 -3.855
2 9.73734 1.97607 -3.91973
2 13.5407 1.96708 -4.23157
2 -13.4894 5.88802 -4.06534
2 -9.72618 5.83514 -4.03894
2 -5.8841 5.93942 -3.98703
2 -2.01017 5.83496 -3.92901
2 1.9261 5.75442 -3.98343
2 5.84407 5.87157 -3.9538
2 9.76979 5.75252 -3.81032
2 13.4704 5.89477 -4.01844
2 -9.797 9.93614 -4.26332
2 -5.85236 9.73039 -4.01772
2 -1.95628 9.64057 -3.95925
2 1.96941 9.62532 -4.00347
2 5.83272 9.63518 -4.01063
2 9.83021 9.67899 -4.13269
2 -5.65598 13.5748 -4.16651
2 -1.93088 13.4826 -4.1227
2 1.87953 13.5313 -4.10864
2 5.62532 13.5319 -4.1336
2 -5.65757 -13.6689 0.0493366
2 -1.81459 -13.5706 0.103563
2 1.98215 -13.5744 0.144834
2 5.84397 -13.5422 0.0781196
2 -9.63955 -9.84592 0.131141
2 -5.81016 -9.86087 0.0073759
2 -1.9289 -9.63976 0.185981
2 1.89849 -9.58817 0.212855
2 5.83253 -9.6833 0.217522
2 9.66448 -9.67583 0.0250133
2 -13.4207 -5.87051 -0.180242
2 -9.69155 -5.91684 -0.0315485
2 -5.84369 -5.85551 0.0311666
2 -1.92934 -5.73989 0.105691
2 1.97447 -5.76774 0.213429
2 5.90017 -5.87981 0.211948
2 9.70934 -5.77159 0.143554
2 13.5671 -5.86725 -0.0761174
2 -13.6366 -1.98455 -0.240977
2 -9.76785 -1.95443 -0.088894
2 -5.84408 -1.84102 0.00762609
2 -1.96276 -1.94319 0.0645827
2 2.02334 -1.93532 0.121893
2 5.83045 -1.95577 0.100487
2 9.73859 -2.01062 0.0265298
2 13.5441 -1.87379 -0.0865104
2 -13.6524 2.04224 -0.153734
2 -9.73003 2.02842 -0.0106238
2 -5.9049 2.02082 -0.0820407
2 -1.93732 1.97638 0.0516546
2 1.91297 1.92158 0.00772568
2 5.85713 1.97733 -0.00194844
2 9.74499 2.00471 -0.00959794
2 13.6412 1.96477 -0.112526
2 -13.6677 5.81766 -0.0795722
2 -9.80189 5.96173 -0.0581365
2 -5.85984 5.86455 -0.0619155
2 -1.93016 5.89095 0.0453738
2 1.97063 5.79832 0.0163698
2 5.8513 5.90786 0.0471185
2 9.76488 5.92645 0.0238628
2 13.6385 5.86214 -0.0337149
2 -9.78382 9.86174 -0.141314
2 -5.87276 9.86198 -0.0411265
2 -1.92124 9.76995 -0.0643892
2 1.93081 9.66501 -0.0590995
2 5.89292 9.7898 -0.0877373
2 9.74103 9.82922 -0.0663668
2 -5.78347 13.7046 -0.175679
2 -1.89595 13.5812 -0.0814499
2 1.93947 13.6283 -0.086289
2 5.68687 13.51 -0.0366075
2 -5.87528 -13.7408 3.89713
2 -1.92935 -13.541 4.08735
2 1.88402 -13.5634 4.11011
2 5.88711 -13.4184 4.10817
2 -9.59428 -9.63654 4.07965
2 -5.8589 -9.78339 4.00211
2 -2.0935 -9.73932 4.08229
2 1.90154 -9.51646 4.13183
2 5.87113 -9.61171 4.07072
2 9.8502 -9.68888 3.97562
2 -13.6147 -5.86423 3.77008
2 -9.77753 -5.77961 3.91654
2 -5.73979 -5.80793 4.01495
2 -2.02075 -5.82238 4.01486
2 1.89939 -5.71208 4.12944
2 5.82876 -5.79092 4.18718
2 9.81393 -5.79963 3.99071
2 13.683 -5.88483 4.01508
2 -13.6003 -1.82552 3.71705
2 -9.72711 -1.94406 3.86469
2 -5.89124 -1.86179 3.87283
2 -1.99078 -1.93372 3.94644
2 1.96445 -1.85953 3.971
2 5.82058 -1.8356 3.99178
2 9.69365 -1.90524 3.9654
2 13.5369 -1.90733 3.928
2 -13.7277 1.90243 3.98431
2 -9.74119 2.04008 3.81726
2 -5.78021 2.01659 3.90665
2 -2.03963 1.97045 3.89349
2 1.96668 1.93948 3.78803
2 5.8374 2.09857 3.93068
2 9.69081 2.05896 3.93519
2 13.6302 1.91013 3.88707
2 -13.5368 5.79767 3.82343
2 -9.77575 5.9475 3.89257
2 -5.93569 5.92872 3.76493
2 -2.05385 5.8862 3.89143
2 1.9183 5.94607 3.98492
2 5.75543 5.87712 3.87516
2 9.83463 5.87232 4.06308
2 13.6349 5.95145 3.86575
2 -9.80817 9.89212 3.84627
2 -5.91415 9.84765 3.82102
2 -1.93924 9.78438 3.8263
2 2.02329 9.69328 3.76193
2 5.9705 9.72576 4.00044
2 9.62988 9.71062 4.09126
2 -5.72224 13.6867 3.92083
2 -1.85843 13.5781 3.95437
2 2.0356 13.5498 3.93955
2 5.63465 13.5627 4.08638
1 -2.28361 -13.271 7.93431
1 1.90266 -12.9009 7.84309
1 -9.61888 -9.52936 6.4051
1 -6.05258 -10.3927 7.73988
1 -1.87979 -9.07828 7.76414
1 1.42765 -8.98767 7.86817
1 5.57255 -9.92677 7.85712
1 9.77388 -9.96368 7.96855
1 -10.3901 -5.7849 7.58577
1 -5.70972 -5.88581 7.52904
1 -2.05468 -5.73467 7.28489
1 1.75401 -5.76737 7.17445
1 5.98992 -5.88266 7.07151
1 10.6883 -5.84162 7.46358
1 -13.3833 -1.95712 7.47223
1 -9.32635 -1.84225 7.53635
1 -5.74804 -1.86005 7.14165
1 -1.84331 -1.87538 7.46622
1 1.82989 -1.87295 7.2107
1 5.99689 -1.67513 7.2333
1 9.33788 -1.44096 7.61365
1 13.4055 -2.06324 6.73199
1 -13.2993 2.03729 7.68042
1 -9.27102 1.87626 7.68318
1 -5.74781 2.14157 7.03884
1 -1.80796 1.96393 7.52912
1 1.72448 1.69832 7.62951
1 5.66083 2.1734 7.02476
1 9.35984 1.88606 7.19242
1 13.4502 2.08101 6.78207
1 -10.2292 5.94266 7.88734
1 -5.87372 5.84878 7.31871
1 -2.07962 5.71034 6.94977
1 1.85383 5.55227 7.04857
1 6.21073 6.15791 7.63285
1 10.5733 5.97621 7.41595
1 -9.33193 10.0993 7.9405
1 -5.68031 9.93121 7.30446
1 -1.61179 9.23561 7.5217
1 1.8814 9.28961 7.49229
1 5.82342 10.1893 7.97956
1 9.71991 9.75355 6.88781
1 -1.95663 13.1609 7.59929
1 2.19488 12.8947 7.57549
1 -2.36533 -9.04676 10.2479
1 1.59003 -8.83233 10.2365
1 -6.17452 -5.82942 9.91913
1 -2.46913 -4.78522 12.5034
1 3.33705 -5.56136 11.591
1 7.11007 -6.23299 9.67499
1 -9.24056 -2.04947 10.0283
1 -4.95343 -1.65229 12.3428
1 -1.91798 -1.92786 10.1537
1 2.46528 -1.9657 10.0151
1 5.43131 -2.16466 11.7159
1 9.60908 -1.79106 9.89513
1 -9.32582 2.02259 10.0735
1 -5.19182 1.65225 10.5982
1 -2.19205 2.14329 10.2405
1 2.21003 2.18628 10.3685
1 5.36482 1.84238 11.9082
1 9.48907 2.15031 9.78965
1 -5.92054 5.88981 9.83701
1 -2.16074 4.58915 12.0223
1 1.81504 4.56145 12.139
1 5.77091 6.04523 9.92737
1 -1.9736 9.02063 10.1302
1 1.93148 9.0229 10.2423
1 -2.58916 -2.33937 13.0686
1 1.49726 -2.36877 13.0018
1 -2.41403 0.0406995 13.9457
1 1.4755 -0.097013 12.9814
2 -1.68547 -15.5608 -1.86141
2 1.96129 -15.369 -1.86884
2 -1.88445 -15.4486 1.90943
2 2.14048 -15.5628 2.19659
1 -1.93757 -11.0385 -8.85112
1 2.02008 -11.214 -8.6798
1 -5.56598 -11.4665 -5.85706
1 -1.87643 -11.3673 -5.60353
1 1.93126 -11.2142 -5.70041
1 5.55721 -11.7206 -5.58873
2 -9.52177 -11.6911 -1.95713
2 -5.65961 -11.6712 -1.9134
2 -1.9043 -11.6096 -1.86486
2 1.94447 -11.5141 -1.68511
2 5.81382 -11.6171 -1.84471
2 9.63729 -11.4731 -2.16048
2 -9.65581 -11.6773 2.16075
2 -5.80285 -11.7077 2.14324
2 -1.95788 -11.593 2.11469
2 1.91787 -11.5102 2.16195
2 5.86599 -11.6164 2.11633
2 9.83645 -11.5288 2.04116
2 -5.82448 -11.9044 5.91825
2 -2.03793 -11.4716 6.05825
1 1.94879 -11.336 5.89357
2 5.72728 -11.4074 6.01403
1 -2.41234 -11.1449 9.02303
1 1.67994 -11.0338 9.0369
1 -1.74979 -7.12476 -11.4979
1 2.14307 -7.06408 -11.2407
1 -9.18776 -7.85782 -8.62202
1 -5.47471 -7.80153 -9.01403
1 -1.49182 -7.39607 -9.03901
1 1.73368 -7.10497 -9.02919
1 5.7556 -8.23458 -8.5469
1 9.38304 -7.94295 -8.39206
2 -9.44694 -7.85697 -5.87852
1 -5.72229 -7.55363 -5.73354
1 -1.98929 -7.49371 -5.70967
1 2.04466 -7.64643 -5.68231
1 5.57631 -7.50767 -5.71102
1 9.67176 -7.65538 -5.88501
2 -13.4077 -7.7512 -2.18888
2 -9.61855 -7.85735 -1.98785
2 -5.7317 -7.79929 -1.85174
2 -1.96225 -7.72129 -1.87867
2 1.92844 -7.64212 -1.8372
2 5.85112 -7.74615 -1.72548
2 9.66054 -7.71993 -1.93771
2 13.4599 -7.63062 -2.09937
2 -13.5354 -7.77224 1.73593
2 -9.59154 -7.82316 1.94375
2 -5.85325 -7.8015 2.08119
2 -1.94404 -7.71817 2.07929
2 1.9362 -7.67609 2.14489
2 5.8276 -7.74127 2.17265
2 9.71702 -7.74005 2.09314
2 13.614 -7.76623 1.97958
1 -9.89279 -7.28064 5.72557
1 -5.49767 -7.73142 6.09596
1 -2.2707 -7.78268 5.86819
1 1.6686 -7.8134 5.88658
1 5.63453 -8.06183 6.03817
2 9.96206 -7.67696 5.82911
1 -9.73586 -7.88984 8.03516
1 -5.98935 -8.06415 8.56886
1 -1.67728 -7.03799 9.26842
1 1.9565 -6.63879 9.22309
1 5.7578 -8.03366 9.3448
1 9.59743 -7.78143 8.36995
1 -2.47556 -6.81271 11.4732
1 1.53904 -6.94113 11.5962
1 -5.60977 -4.05452 -11.8695
1 -1.70233 -5.09287 -12.6729
1 0.309285 -4.29531 -13.3834
1 5.81845 -4.28125 -11.2563
1 -9.46678 -3.82533 -9.20742
1 -5.64943 -3.85522 -9.21841
1 -1.57859 -3.52041 -8.6002
1 1.92328 -3.84394 -8.86761
1 5.33712 -3.64663 -8.71091
1 9.47241 -3.90991 -8.42401
1 -13.1268 -3.85189 -6.01026
1 -9.50199 -4.13285 -5.99754
1 -5.80349 -3.83717 -5.80564
2 -1.89912 -3.87468 -5.80284
1 1.95975 -3.85636 -5.48435
1 5.63273 -3.88538 -5.57201
1 9.37834 -3.62783 -5.89211
1 13.2215 -3.95918 -5.99399
2 -13.4884 -3.88049 -2.16075
2 -9.68118 -3.93159 -2.00954
2 -5.84707 -3.87484 -1.87418
2 -1.95223 -3.90026 -1.84918
2 2.00223 -3.88835 -1.76886
2 5.87403 -4.01688 -1.72541
2 9.64681 -3.87747 -1.91637
2 13.4655 -3.78672 -2.06165
2 -13.6148 -3.93688 1.82341
2 -9.7744 -3.85802 1.90987
2 -5.83374 -3.91885 1.98339
2 -1.95191 -3.89706 2.06636
2 1.99417 -3.77921 2.08358
2 5.85513 -3.92746 2.14847
2 9.74843 -3.94052 2.11053
2 13.5256 -3.91494 1.97965
2 -13.8429 -3.85788 5.62398
1 -9.54997 -3.76808 5.90316
1 -5.77997 -3.702 5.68058
1 -2.05437 -3.81133 5.67994
1 2.0911 -3.80351 5.88655
2 5.8896 -3.78177 5.93524
1 9.7264 -3.7272 6.04778
1 13.7331 -4.09825 5.67746
1 -9.93443 -3.924 8.72714
1 -5.56505 -3.72041 8.78014
1 -2.0444 -3.89487 8.94515
1 1.82578 -4.03012 8.8793
1 5.87736 -3.92544 8.46509
1 10.1183 -3.82074 8.63351
1 -6.05945 -4.06741 11.4268
1 -0.532989 -3.58867 12.8483
1 1.35301 -4.65992 12.2329
1 6.24984 -4.08219 10.8453
1 -6.07456 0.0584845 -11.549
1 -2.86018 -1.29751 -12.8639
1 1.47235 -0.517574 -13.0671
1 5.90638 -0.258384 -11.8088
1 -10.0076 -0.0618684 -9.39505
1 -5.31115 -0.1887 -8.81696
1 -1.71485 0.140623 -9.06973
1 1.83268 -0.120649 -8.84622
1 5.32916 -0.0236958 -8.60177
1 9.89724 0.0164516 -9.15228
2 -13.2826 -0.0391115 -6.16669
1 -9.69917 -0.114719 -5.87378
1 -5.50787 -0.0589252 -5.88702
1 -1.8645 0.231737 -5.59639
1 1.77176 0.155 -5.55555
1 5.6948 -0.184839 -5.47424
1 9.32856 0.0510441 -5.80639
1 13.3207 -0.152437 -6.15851
2 -13.528 -0.0114622 -2.17647
2 -9.66763 0.0771301 -2.07493
2 -5.85654 0.0175479 -2.00329
2 -1.92833 -0.00444034 -1.87517
2 1.93287 0.0340097 -1.86053
2 5.84255 -0.0117472 -1.83755
2 9.7675 0.0346467 -1.95715
2 13.5307 0.0582025 -2.11129
2 -13.5209 0.0588703 1.75847
2 -9.78383 0.0792709 1.86307
2 -5.80815 0.048293 1.89956
2 -2.04606 0.0267018 1.97935
2 1.95828 -0.00126075 1.98039
2 5.92801 0.0925188 2.02254
2 9.63048 0.00476001 1.97818
2 13.5612 -0.00257266 1.94416
2 -13.5577 0.0546818 5.96237
2 -9.71445 0.01212 5.74581
1 -5.66063 0.0535677 5.65169
1 -1.88626 0.0763876 5.80652
1 2.12722 0.0661298 5.71519
1 5.60581 0.223573 5.76818
1 9.66127 0.115864 5.65971
1 13.8698 0.0103672 5.66705
1 -10.1491 -0.0927526 9.18545
1 -5.45743 -0.00420774 8.82643
1 -0.793821 0.194308 9.4734
1 1.59675 0.0577834 9.25101
1 5.6855 0.528362 8.6585
1 10.5971 0.13966 9.04266
1 -6.25448 0.0182051 11.8833
1 -2.00369 -0.146554 11.6774
1 3.3474 -1.17025 12.3219
1 6.34726 -0.0589399 11.1859
1 -5.5351 4.13442 -11.6039
1 -1.67912 5.30025 -12.2611
1 -1.2632 3.1262 -12.8882
1 5.41763 4.03289 -11.0027
1 -9.65126 3.9592 -8.90586
1 -5.55383 3.42485 -9.18951
1 -2.05215 4.43502 -8.11156
1 2.04856 3.27051 -9.09466
1 5.32213 3.62549 -8.68887
1 9.73285 3.90618 -8.93021
2 -13.3785 3.843 -6.04576
2 -9.58847 3.86685 -6.02312
1 -5.93938 3.83901 -5.83921
1 -1.88965 3.87316 -5.90856
1 1.72683 3.58259 -5.57035
2 5.78809 3.95009 -5.8139
1 9.53758 3.845 -5.71596
2 13.3093 4.05514 -6.0777
2 -13.5899 3.94694 -2.08985
2 -9.73029 3.87787 -2.03554
2 -5.8316 3.94893 -2.04556
2 -1.9415 3.88258 -1.93851
2 1.91082 3.84706 -1.92567
2 5.81383 3.87019 -1.93521
2 9.74332 3.85759 -1.92193
2 13.6066 3.95393 -2.08015
2 -13.5973 3.84325 1.91893
2 -9.67625 3.98516 1.92011
2 -5.88233 3.92552 1.895
2 -1.99804 3.94913 2.01052
2 1.94844 3.95631 2.0247
2 5.94827 3.95904 1.99984
2 9.78631 4.00757 1.96144
2 13.5908 3.88169 1.95905
2 -13.5742 3.8965 5.85212
2 -9.71663 4.02929 5.85008
1 -6.10132 4.16149 5.58418
1 -1.96354 3.65711 5.65422
1 1.8003 3.50873 5.71389
1 5.93 4.24053 5.70531
1 9.61878 4.04657 5.93909
1 13.7297 4.14909 5.62823
1 -10.0394 3.95342 9.0308
1 -5.72832 3.77804 8.80665
1 -1.90548 4.10657 8.82092
1 2.19599 3.89976 8.6994
1 5.52262 4.03919 8.56173
1 9.92649 3.9579 8.4825
1 -5.9737 3.9448 11.19
1 -2.17726 2.16439 12.6646
1 1.53891 2.34244 12.9184
1 5.69018 3.88756 11.0694
1 -2.18401 7.62211 -11.7225
1 2.0694 7.35618 -10.9976
1 -9.34157 7.95664 -8.56327
1 -5.98438 8.99356 -9.69331
1 -0.353439 8.13232 -9.15907
1 1.91626 7.2471 -8.48137
1 5.87835 8.24449 -8.859
1 9.54416 7.85288 -8.53404
2 -9.59548 7.79765 -6.04043
2 -5.80921 7.81576 -5.86976
1 -2.12294 7.96659 -5.79887
1 2.0686 7.62816 -5.88815
1 5.74293 7.82225 -5.80495
1 9.98818 7.68294 -5.96803
2 -13.4442 7.74688 -2.03911
2 -9.76571 7.83611 -1.98685
2 -5.91526 7.84206 -2.00065
2 -1.90762 7.71853 -1.93155
2 1.95209 7.72499 -2.03879
2 5.90115 7.80389 -2.0476
2 9.75091 7.81216 -1.9961
2 13.654 7.81926 -1.96998
2 -13.5949 7.76702 1.86915
2 -9.87531 7.90031 1.9216
2 -5.91245 7.85944 1.90901
2 -1.93712 7.83897 1.91287
2 1.92322 7.80433 1.9498
2 5.81793 7.84574 2.01029
2 9.77771 7.84194 1.88568
2 13.6253 7.85113 1.80231
2 -9.6419 7.94807 5.97563
1 -5.77357 7.9822 5.94931
1 -1.98721 7.85816 5.65009
1 2.08665 7.93938 5.74556
1 5.9468 7.63976 5.67423
1 10.8727 7.85269 6.0139
1 -9.55824 7.99766 8.95937
1 -5.84449 7.99434 8.8484
1 -1.79526 6.63449 9.07922
1 1.95818 7.2771 8.82795
1 5.93979 8.20311 9.20027
1 9.75041 7.91497 8.10683
1 -2.07112 6.83183 11.3517
1 1.88822 6.4973 10.9813
1 -1.89883 11.491 -8.75827
1 2.01317 11.3151 -8.74156
1 -5.73523 11.7205 -5.94986
1 -2.08923 11.4237 -5.94276
1 2.0367 11.3303 -5.67113
1 5.75056 11.7196 -5.90955
2 -9.64365 11.7886 -2.14934
2 -5.848 11.7073 -2.08815
2 -1.93605 11.6396 -2.02599
2 1.91143 11.6229 -2.04064
2 5.81825 11.6012 -2.01848
2 9.64367 11.6817 -2.16171
2 -9.73835 11.8279 1.87143
2 -5.85593 11.7854 1.83507
2 -1.95943 11.7159 1.93727
2 2.0043 11.6757 1.90668
2 5.84542 11.6738 1.93784
2 9.59773 11.7717 2.12125
2 -5.8323 11.7024 5.74873
2 -1.92187 11.5876 5.85032
1 2.22122 11.3852 5.7877
1 5.74833 11.7523 5.99874
1 -2.01488 11.119 8.77476
1 1.93582 11.0206 8.97544
2 -1.84103 15.4764 -2.32148
2 1.9124 15.4396 -2.16928
2 -1.85807 15.3913 1.92718
2 2.00016 15.4303 1.94836
2 -15.3756 -1.91596 -2.20687
2 -15.3836 1.99379 -2.13489
2 -15.3941 -1.85879 1.74164
2 -15.4942 1.89269 1.95977
1 -10.9954 -2.10045 -9.06049
1 -11.0959 1.99838 -8.90922
2 -11.3952 -5.75904 -6.02945
1 -11.4547 -1.9503 -5.97168
2 -11.4833 1.94923 -6.04667
2 -11.5296 5.77263 -5.86918
2 -11.453 -9.75116 -1.9902
2 -11.4804 -5.90336 -2.12565
2 -11.5792 -1.94677 -2.15638
2 -11.6619 2.00142 -2.07998
2 -11.6008 5.78484 -2.01282
2 -11.5776 9.72027 -2.13584
2 -11.5083 -9.66792 2.05025
2 -11.6448 -5.89014 1.86479
2 -11.764 -1.89959 1.79412
2 -11.6744 2.02256 1.90069
2 -11.7031 5.87677 1.93275
2 -11.7712 9.83667 1.95008
1 -11.823 -5.82342 5.69955
2 -11.7312 -2.00915 5.72726
2 -11.5817 2.01721 5.83335
2 -11.616 5.82306 5.88035
1 -11.4118 -2.03829 8.84826
1 -11.2779 1.94477 8.95725
1 -7.03047 -2.00864 -11.4012
1 -6.73821 2.1426 -11.2726
1 -7.42822 -9.30241 -8.85669
1 -7.8574 -5.92947 -9.26634
1 -7.3018 -1.71449 -9.08658
1 -7.11083 1.26846 -9.02905
1 -8.14508 5.97128 -9.03181
1 -7.82648 9.9169 -8.75553
2 -7.41829 -9.58932 -5.91255
1 -7.58234 -5.6873 -5.88383
1 -7.70125 -2.2046 -5.69317
1 -7.63201 1.85228 -5.85223
2 -7.78627 5.79319 -6.01759
1 -7.5675 9.89724 -6.174
2 -7.42617 -13.5638 -2.0575
2 -7.63879 -9.82378 -1.96861
2 -7.70034 -5.86529 -1.90391
2 -7.80673 -1.88347 -2.00196
2 -7.71437 1.96419 -2.06745
2 -7.83147 5.91251 -2.03575
2 -7.82837 9.86367 -2.07743
2 -7.63416 13.5522 -2.34759
2 -7.66063 -13.6895 1.92851
2 -7.74351 -9.73678 2.12312
2 -7.75271 -5.91298 1.97103
2 -7.81782 -1.88723 1.86744
2 -7.75782 1.97606 1.84976
2 -7.78621 5.98141 1.87441
2 -7.84559 9.83319 1.87664
2 -7.74402 13.7948 1.8179
1 -7.42196 -9.90795 5.92945
1 -7.66053 -5.47053 5.70932
1 -7.82483 -1.79534 5.6028
2 -7.83906 1.98135 5.80375
1 -7.67298 5.9875 5.72993
2 -7.83792 9.94057 5.85576
1 -7.9714 -9.51359 8.23998
1 -8.39054 -5.97891 8.8055
1 -7.0556 -1.89892 9.03889
1 -7.14843 1.66717 9.01184
1 -9.51633 6.01337 10.0933
1 -7.64304 8.57502 7.68074
1 -7.35245 -1.95387 11.4979
1 -7.36031 2.06366 11.3856
1 -3.70162 -5.52407 -11.514
1 -3.46976 -3.48934 -12.6905
1 -3.53741 3.71671 -12.7137
1 -3.92641 5.95634 -11.3651
1 -3.65794 -9.56762 -8.99817
1 -4.02172 -5.77136 -8.90033
1 -3.53924 -1.76664 -8.82839
1 -3.70084 1.83503 -9.0981
1 -3.97444 5.51224 -8.85215
1 -3.90182 10.1182 -8.99679
2 -3.54684 -13.2281 -6.0091
1 -3.65851 -9.64752 -5.75195
2 -3.83021 -5.69097 -5.83986
2 -3.80031 -2.01486 -5.69968
1 -3.68084 2.06054 -5.83528
2 -3.88714 6.01511 -5.93393
1 -3.82585 9.64032 -5.99082
1 -3.8549 13.1934 -5.83441
2 -3.64326 -13.6728 -1.95756
2 -3.71737 -9.66424 -1.86292
2 -3.85692 -5.83681 -1.84888
2 -3.86025 -1.93521 -1.90157
2 -3.92487 1.99838 -1.972
2 -3.8824 5.80696 -2.03252
2 -3.8203 9.69829 -1.92094
2 -3.81903 13.5824 -2.08367
2 -3.80641 -13.6004 2.13704
2 -3.93024 -9.72529 2.02868
2 -3.93175 -5.84955 2.04689
2 -3.93389 -1.94086 1.96197
2 -3.95234 1.91602 1.88893
2 -3.94897 5.82989 1.96588
2 -3.88111 9.75127 1.94169
2 -3.82141 13.6933 1.88732
2 -3.84051 -13.6317 5.96965
1 -4.01908 -9.71437 5.97604
1 -3.91592 -5.69247 5.75699
1 -3.84803 -2.02755 5.83115
1 -3.72647 1.91554 5.91576
1 -4.06386 6.09749 5.60402
1 -3.7843 9.71989 5.74813
2 -3.89241 13.6127 5.86704
1 -4.18189 -9.69637 8.97637
1 -3.91944 -5.45322 9.20953
1 -4.01911 -1.96517 8.96464
1 -3.9905 2.25601 8.63824
1 -3.82096 5.44162 8.75979
1 -3.94609 9.79176 8.85308
1 -4.43545 -5.5896 11.5666
1 -4.39034 -3.73204 12.9089
1 -4.10718 0.742079 12.5506
1 -4.11055 5.36853 11.1359
1 0.206362 -6.16684 -12.0298
1 0.173857 -2.20265 -12.2055
1 0.801396 2.95131 -11.3236
1 -0.0123932 6.59011 -11.499
1 0.112154 -10.2798 -9.6306
1 -0.0567353 -5.4612 -8.80866
1 0.0581409 -1.64684 -8.86041
1 0.14278 1.66406 -9.17162
1 -0.140081 5.86285 -8.30446
1 0.0761399 10.837 -9.81521
1 -0.0353167 -12.9069 -5.82245
2 0.0600785 -9.60656 -5.69309
1 0.0764836 -5.66046 -5.67302
1 -0.0378958 -1.86436 -5.56856
1 -0.153297 2.06124 -5.56742
2 -0.0476895 5.67158 -5.80258
1 -0.0637768 9.91197 -5.78578
1 -0.113292 13.0669 -6.0203
2 0.0632408 -13.519 -1.8336
2 -0.0318143 -9.53644 -1.80962
2 0.0665951 -5.73745 -1.81154
2 0.0289872 -1.92088 -1.85071
2 -0.0407194 1.93601 -1.88889
2 0.01361 5.78016 -1.94185
2 0.0399928 9.66827 -1.99966
2 0.0495549 13.5851 -2.08333
2 0.0774087 -13.593 2.14547
2 -0.0272772 -9.66983 2.09449
2 0.0529886 -5.71592 2.1669
2 0.00832534 -1.88602 2.07008
2 -0.0261715 1.91012 1.93256
2 -0.0829184 5.85895 1.99027
2 -0.0286294 9.75494 1.86757
2 0.0609866 13.6321 1.94917
2 0.0529078 -13.2207 6.19458
1 -0.206921 -9.65793 6.01549
1 -0.189215 -5.77187 5.68175
1 -0.08229 -1.928 5.68897
1 0.0326526 1.73063 5.81494
1 -0.0904398 5.70465 5.50818
2 0.110241 9.65716 5.74727
2 0.0766979 13.4097 5.98815
1 -0.274936 -9.99832 9.55286
1 -0.0526627 -5.46268 8.79214
1 0.207043 -2.00589 8.90125
1 0.0462712 2.61066 9.152
1 0.212105 5.19583 8.94448
1 -0.102905 10.0781 9.6791
1 -0.517782 -5.76876 12.0746
1 0.514799 -1.33157 11.0804
1 -0.295984 1.20153 13.657
1 -0.0921997 5.55622 11.6053
1 4.22063 -5.86755 -11.3401
1 2.60189 -2.65297 -12.8209
1 2.38134 1.44208 -12.073
1 3.78565 5.66746 -11.0263
1 3.98783 -9.75548 -8.74685
1 3.79811 -5.58289 -8.91613
1 3.64267 -1.9165 -8.78125
1 3.72649 1.71888 -8.75597
1 3.70068 5.38623 -8.63367
1 3.82497 9.8461 -8.73858
1 3.5744 -13.2026 -5.52283
1 3.88784 -9.63303 -5.76513
1 3.89115 -5.72407 -5.58567
1 3.90567 -1.97783 -5.44471
1 3.77087 1.70666 -5.47969
1 4.0525 5.89953 -5.89007
1 3.82099 9.56649 -6.00868
1 3.69994 13.2127 -5.82706
2 3.86608 -13.4933 -1.86252
2 3.90763 -9.66503 -1.72993
2 3.85781 -5.85488 -1.76992
2 3.91765 -1.93692 -1.80676
2 3.89885 1.89685 -1.9285
2 3.88094 5.83293 -1.98897
2 3.91386 9.69515 -2.02519
2 3.85787 13.4829 -2.11859
2 3.92631 -13.5258 2.12439
2 3.89499 -9.58543 2.17079
2 3.95703 -5.81727 2.23711
2 3.96698 -1.96009 2.05236
2 3.90347 2.05554 2.01166
2 3.88107 5.828 1.98846
2 3.90825 9.6909 1.83123
2 3.92849 13.5875 2.00195
2 3.80313 -13.3328 6.142
1 3.69997 -9.61499 6.07069
1 3.91961 -5.39921 5.89051
1 3.89652 -1.65272 5.80779
1 3.71091 1.98696 5.72661
1 3.84713 6.21612 5.86847
1 4.11905 9.69339 5.78889
1 3.77214 13.113 5.91622
1 3.67334 -9.42915 9.14071
1 3.81522 -5.38285 8.26746
1 4.94015 -1.58174 9.29256
1 3.99167 2.18553 8.80804
1 3.73581 5.72052 8.55046
1 3.92108 9.6932 9.27669