LAMMPS DATA FOR MEAM SIMULATION

   1157   atoms
      2   atom types

  -25.70   25.70   xlo xhi
  -25.70   25.70   ylo yhi
  -25.70   25.70   zlo zhi

 Atoms

     1   2     0.00000     0.00000   -15.69777
     2   2    -3.92444    -7.84889   -11.77333
     3   2     0.00000    -7.84889   -11.77333
     4   2     3.92444    -7.84889   -11.77333
     5   2    -7.84889    -3.92444   -11.77333
     6   2    -3.92444    -3.92444   -11.77333
     7   2     0.00000    -3.92444   -11.77333
     8   2     3.92444    -3.92444   -11.77333
     9   2     7.84889    -3.92444   -11.77333
    10   2    -7.84889     0.00000   -11.77333
    11   2    -3.92444     0.00000   -11.77333
    12   2     0.00000     0.00000   -11.77333
    13   2     3.92444     0.00000   -11.77333
    14   2     7.84889     0.00000   -11.77333
    15   2    -7.84889     3.92444   -11.77333
    16   2    -3.92444     3.92444   -11.77333
    17   2     0.00000     3.92444   -11.77333
    18   2     3.92444     3.92444   -11.77333
    19   2     7.84889     3.92444   -11.77333
    20   2    -3.92444     7.84889   -11.77333
    21   2     0.00000     7.84889   -11.77333
    22   2     3.92444     7.84889   -11.77333
    23   2    -3.92444   -11.77333    -7.84889
    24   2     0.00000   -11.77333    -7.84889
    25   2     3.92444   -11.77333    -7.84889
    26   2    -7.84889    -7.84889    -7.84889
    27   2    -3.92444    -7.84889    -7.84889
    28   2     0.00000    -7.84889    -7.84889
    29   2     3.92444    -7.84889    -7.84889
    30   2     7.84889    -7.84889    -7.84889
    31   2   -11.77333    -3.92444    -7.84889
    32   2    -7.84889    -3.92444    -7.84889
    33   2    -3.92444    -3.92444    -7.84889
    34   2     0.00000    -3.92444    -7.84889
    35   2     3.92444    -3.92444    -7.84889
    36   2     7.84889    -3.92444    -7.84889
    37   2    11.77333    -3.92444    -7.84889
    38   2   -11.77333     0.00000    -7.84889
    39   2    -7.84889     0.00000    -7.84889
    40   2    -3.92444     0.00000    -7.84889
    41   2     0.00000     0.00000    -7.84889
    42   2     3.92444     0.00000    -7.84889
    43   2     7.84889     0.00000    -7.84889
    44   2    11.77333     0.00000    -7.84889
    45   2   -11.77333     3.92444    -7.84889
    46   2    -7.84889     3.92444    -7.84889
    47   2    -3.92444     3.92444    -7.84889
    48   2     0.00000     3.92444    -7.84889
    49   2     3.92444     3.92444    -7.84889
    50   2     7.84889     3.92444    -7.84889
    51   2    11.77333     3.92444    -7.84889
    52   2    -7.84889     7.84889    -7.84889
    53   2    -3.92444     7.84889    -7.84889
    54   2     0.00000     7.84889    -7.84889
    55   2     3.92444     7.84889    -7.84889
    56   2     7.84889     7.84889    -7.84889
    57   2    -3.92444    11.77333    -7.84889
    58   2     0.00000    11.77333    -7.84889
    59   2     3.92444    11.77333    -7.84889
    60   2    -7.84889   -11.77333    -3.92444
    61   2    -3.92444   -11.77333    -3.92444
    62   2     0.00000   -11.77333    -3.92444
    63   2     3.92444   -11.77333    -3.92444
    64   2     7.84889   -11.77333    -3.92444
    65   2   -11.77333    -7.84889    -3.92444
    66   2    -7.84889    -7.84889    -3.92444
    67   2    -3.92444    -7.84889    -3.92444
    68   2     0.00000    -7.84889    -3.92444
    69   2     3.92444    -7.84889    -3.92444
    70   2     7.84889    -7.84889    -3.92444
    71   2    11.77333    -7.84889    -3.92444
    72   2   -11.77333    -3.92444    -3.92444
    73   2    -7.84889    -3.92444    -3.92444
    74   2    -3.92444    -3.92444    -3.92444
    75   2     0.00000    -3.92444    -3.92444
    76   2     3.92444    -3.92444    -3.92444
    77   2     7.84889    -3.92444    -3.92444
    78   2    11.77333    -3.92444    -3.92444
    79   2   -11.77333     0.00000    -3.92444
    80   2    -7.84889     0.00000    -3.92444
    81   2    -3.92444     0.00000    -3.92444
    82   2     0.00000     0.00000    -3.92444
    83   2     3.92444     0.00000    -3.92444
    84   2     7.84889     0.00000    -3.92444
    85   2    11.77333     0.00000    -3.92444
    86   2   -11.77333     3.92444    -3.92444
    87   2    -7.84889     3.92444    -3.92444
    88   2    -3.92444     3.92444    -3.92444
    89   2     0.00000     3.92444    -3.92444
    90   2     3.92444     3.92444    -3.92444
    91   2     7.84889     3.92444    -3.92444
    92   2    11.77333     3.92444    -3.92444
    93   2   -11.77333     7.84889    -3.92444
    94   2    -7.84889     7.84889    -3.92444
    95   2    -3.92444     7.84889    -3.92444
    96   2     0.00000     7.84889    -3.92444
    97   2     3.92444     7.84889    -3.92444
    98   2     7.84889     7.84889    -3.92444
    99   2    11.77333     7.84889    -3.92444
   100   2    -7.84889    11.77333    -3.92444
   101   2    -3.92444    11.77333    -3.92444
   102   2     0.00000    11.77333    -3.92444
   103   2     3.92444    11.77333    -3.92444
   104   2     7.84889    11.77333    -3.92444
   105   2     0.00000   -15.69777     0.00000
   106   2    -7.84889   -11.77333     0.00000
   107   2    -3.92444   -11.77333     0.00000
   108   2     0.00000   -11.77333     0.00000
   109   2     3.92444   -11.77333     0.00000
   110   2     7.84889   -11.77333     0.00000
   111   2   -11.77333    -7.84889     0.00000
   112   2    -7.84889    -7.84889     0.00000
   113   2    -3.92444    -7.84889     0.00000
   114   2     0.00000    -7.84889     0.00000
   115   2     3.92444    -7.84889     0.00000
   116   2     7.84889    -7.84889     0.00000
   117   2    11.77333    -7.84889     0.00000
   118   2   -11.77333    -3.92444     0.00000
   119   2    -7.84889    -3.92444     0.00000
   120   2    -3.92444    -3.92444     0.00000
   121   2     0.00000    -3.92444     0.00000
   122   2     3.92444    -3.92444     0.00000
   123   2     7.84889    -3.92444     0.00000
   124   2    11.77333    -3.92444     0.00000
   125   2   -15.69777     0.00000     0.00000
   126   2   -11.77333     0.00000     0.00000
   127   2    -7.84889     0.00000     0.00000
   128   2    -3.92444     0.00000     0.00000
   129   2     0.00000     0.00000     0.00000
   130   2     3.92444     0.00000     0.00000
   131   2     7.84889     0.00000     0.00000
   132   2    11.77333     0.00000     0.00000
   133   2    15.69777     0.00000     0.00000
   134   2   -11.77333     3.92444     0.00000
   135   2    -7.84889     3.92444     0.00000
   136   2    -3.92444     3.92444     0.00000
   137   2     0.00000     3.92444     0.00000
   138   2     3.92444     3.92444     0.00000
   139   2     7.84889     3.92444     0.00000
   140   2    11.77333     3.92444     0.00000
   141   2   -11.77333     7.84889     0.00000
   142   2    -7.84889     7.84889     0.00000
   143   2    -3.92444     7.84889     0.00000
   144   2     0.00000     7.84889     0.00000
   145   2     3.92444     7.84889     0.00000
   146   2     7.84889     7.84889     0.00000
   147   2    11.77333     7.84889     0.00000
   148   2    -7.84889    11.77333     0.00000
   149   2    -3.92444    11.77333     0.00000
   150   2     0.00000    11.77333     0.00000
   151   2     3.92444    11.77333     0.00000
   152   2     7.84889    11.77333     0.00000
   153   2     0.00000    15.69777     0.00000
   154   2    -7.84889   -11.77333     3.92444
   155   2    -3.92444   -11.77333     3.92444
   156   2     0.00000   -11.77333     3.92444
   157   2     3.92444   -11.77333     3.92444
   158   2     7.84889   -11.77333     3.92444
   159   2   -11.77333    -7.84889     3.92444
   160   2    -7.84889    -7.84889     3.92444
   161   2    -3.92444    -7.84889     3.92444
   162   2     0.00000    -7.84889     3.92444
   163   2     3.92444    -7.84889     3.92444
   164   2     7.84889    -7.84889     3.92444
   165   2    11.77333    -7.84889     3.92444
   166   2   -11.77333    -3.92444     3.92444
   167   2    -7.84889    -3.92444     3.92444
   168   2    -3.92444    -3.92444     3.92444
   169   2     0.00000    -3.92444     3.92444
   170   2     3.92444    -3.92444     3.92444
   171   2     7.84889    -3.92444     3.92444
   172   2    11.77333    -3.92444     3.92444
   173   2   -11.77333     0.00000     3.92444
   174   2    -7.84889     0.00000     3.92444
   175   2    -3.92444     0.00000     3.92444
   176   2     0.00000     0.00000     3.92444
   177   2     3.92444     0.00000     3.92444
   178   2     7.84889     0.00000     3.92444
   179   2    11.77333     0.00000     3.92444
   180   2   -11.77333     3.92444     3.92444
   181   2    -7.84889     3.92444     3.92444
   182   2    -3.92444     3.92444     3.92444
   183   2     0.00000     3.92444     3.92444
   184   2     3.92444     3.92444     3.92444
   185   2     7.84889     3.92444     3.92444
   186   2    11.77333     3.92444     3.92444
   187   2   -11.77333     7.84889     3.92444
   188   2    -7.84889     7.84889     3.92444
   189   2    -3.92444     7.84889     3.92444
   190   2     0.00000     7.84889     3.92444
   191   2     3.92444     7.84889     3.92444
   192   2     7.84889     7.84889     3.92444
   193   2    11.77333     7.84889     3.92444
   194   2    -7.84889    11.77333     3.92444
   195   2    -3.92444    11.77333     3.92444
   196   2     0.00000    11.77333     3.92444
   197   2     3.92444    11.77333     3.92444
   198   2     7.84889    11.77333     3.92444
   199   2    -3.92444   -11.77333     7.84889
   200   2     0.00000   -11.77333     7.84889
   201   2     3.92444   -11.77333     7.84889
   202   2    -7.84889    -7.84889     7.84889
   203   2    -3.92444    -7.84889     7.84889
   204   2     0.00000    -7.84889     7.84889
   205   2     3.92444    -7.84889     7.84889
   206   2     7.84889    -7.84889     7.84889
   207   2   -11.77333    -3.92444     7.84889
   208   2    -7.84889    -3.92444     7.84889
   209   2    -3.92444    -3.92444     7.84889
   210   2     0.00000    -3.92444     7.84889
   211   2     3.92444    -3.92444     7.84889
   212   2     7.84889    -3.92444     7.84889
   213   2    11.77333    -3.92444     7.84889
   214   2   -11.77333     0.00000     7.84889
   215   2    -7.84889     0.00000     7.84889
   216   2    -3.92444     0.00000     7.84889
   217   2     0.00000     0.00000     7.84889
   218   2     3.92444     0.00000     7.84889
   219   2     7.84889     0.00000     7.84889
   220   2    11.77333     0.00000     7.84889
   221   2   -11.77333     3.92444     7.84889
   222   2    -7.84889     3.92444     7.84889
   223   2    -3.92444     3.92444     7.84889
   224   2     0.00000     3.92444     7.84889
   225   2     3.92444     3.92444     7.84889
   226   2     7.84889     3.92444     7.84889
   227   2    11.77333     3.92444     7.84889
   228   2    -7.84889     7.84889     7.84889
   229   2    -3.92444     7.84889     7.84889
   230   2     0.00000     7.84889     7.84889
   231   2     3.92444     7.84889     7.84889
   232   2     7.84889     7.84889     7.84889
   233   2    -3.92444    11.77333     7.84889
   234   2     0.00000    11.77333     7.84889
   235   2     3.92444    11.77333     7.84889
   236   2    -3.92444    -7.84889    11.77333
   237   2     0.00000    -7.84889    11.77333
   238   2     3.92444    -7.84889    11.77333
   239   2    -7.84889    -3.92444    11.77333
   240   2    -3.92444    -3.92444    11.77333
   241   2     0.00000    -3.92444    11.77333
   242   2     3.92444    -3.92444    11.77333
   243   2     7.84889    -3.92444    11.77333
   244   2    -7.84889     0.00000    11.77333
   245   2    -3.92444     0.00000    11.77333
   246   2     0.00000     0.00000    11.77333
   247   2     3.92444     0.00000    11.77333
   248   2     7.84889     0.00000    11.77333
   249   2    -7.84889     3.92444    11.77333
   250   2    -3.92444     3.92444    11.77333
   251   2     0.00000     3.92444    11.77333
   252   2     3.92444     3.92444    11.77333
   253   2     7.84889     3.92444    11.77333
   254   2    -3.92444     7.84889    11.77333
   255   2     0.00000     7.84889    11.77333
   256   2     3.92444     7.84889    11.77333
   257   2     0.00000     0.00000    15.69777
   258   2    -1.96222    -1.96222   -15.69777
   259   2     1.96222    -1.96222   -15.69777
   260   2    -1.96222     1.96222   -15.69777
   261   2     1.96222     1.96222   -15.69777
   262   2    -1.96222    -9.81111   -11.77333
   263   2     1.96222    -9.81111   -11.77333
   264   2    -5.88666    -5.88666   -11.77333
   265   2    -1.96222    -5.88666   -11.77333
   266   2     1.96222    -5.88666   -11.77333
   267   2     5.88666    -5.88666   -11.77333
   268   2    -9.81111    -1.96222   -11.77333
   269   2    -5.88666    -1.96222   -11.77333
   270   2    -1.96222    -1.96222   -11.77333
   271   2     1.96222    -1.96222   -11.77333
   272   2     5.88666    -1.96222   -11.77333
   273   2     9.81111    -1.96222   -11.77333
   274   2    -9.81111     1.96222   -11.77333
   275   2    -5.88666     1.96222   -11.77333
   276   2    -1.96222     1.96222   -11.77333
   277   2     1.96222     1.96222   -11.77333
   278   2     5.88666     1.96222   -11.77333
   279   2     9.81111     1.96222   -11.77333
   280   2    -5.88666     5.88666   -11.77333
   281   2    -1.96222     5.88666   -11.77333
   282   2     1.96222     5.88666   -11.77333
   283   2     5.88666     5.88666   -11.77333
   284   2    -1.96222     9.81111   -11.77333
   285   2     1.96222     9.81111   -11.77333
   286   2    -1.96222   -13.73555    -7.84889
   287   2     1.96222   -13.73555    -7.84889
   288   2    -9.81111    -9.81111    -7.84889
   289   2    -5.88666    -9.81111    -7.84889
   290   2    -1.96222    -9.81111    -7.84889
   291   2     1.96222    -9.81111    -7.84889
   292   2     5.88666    -9.81111    -7.84889
   293   2     9.81111    -9.81111    -7.84889
   294   2    -9.81111    -5.88666    -7.84889
   295   2    -5.88666    -5.88666    -7.84889
   296   2    -1.96222    -5.88666    -7.84889
   297   2     1.96222    -5.88666    -7.84889
   298   2     5.88666    -5.88666    -7.84889
   299   2     9.81111    -5.88666    -7.84889
   300   2   -13.73555    -1.96222    -7.84889
   301   2    -9.81111    -1.96222    -7.84889
   302   2    -5.88666    -1.96222    -7.84889
   303   2    -1.96222    -1.96222    -7.84889
   304   2     1.96222    -1.96222    -7.84889
   305   2     5.88666    -1.96222    -7.84889
   306   2     9.81111    -1.96222    -7.84889
   307   2    13.73555    -1.96222    -7.84889
   308   2   -13.73555     1.96222    -7.84889
   309   2    -9.81111     1.96222    -7.84889
   310   2    -5.88666     1.96222    -7.84889
   311   2    -1.96222     1.96222    -7.84889
   312   2     1.96222     1.96222    -7.84889
   313   2     5.88666     1.96222    -7.84889
   314   2     9.81111     1.96222    -7.84889
   315   2    13.73555     1.96222    -7.84889
   316   2    -9.81111     5.88666    -7.84889
   317   2    -5.88666     5.88666    -7.84889
   318   2    -1.96222     5.88666    -7.84889
   319   2     1.96222     5.88666    -7.84889
   320   2     5.88666     5.88666    -7.84889
   321   2     9.81111     5.88666    -7.84889
   322   2    -9.81111     9.81111    -7.84889
   323   2    -5.88666     9.81111    -7.84889
   324   2    -1.96222     9.81111    -7.84889
   325   2     1.96222     9.81111    -7.84889
   326   2     5.88666     9.81111    -7.84889
   327   2     9.81111     9.81111    -7.84889
   328   2    -1.96222    13.73555    -7.84889
   329   2     1.96222    13.73555    -7.84889
   330   2    -5.88666   -13.73555    -3.92444
   331   2    -1.96222   -13.73555    -3.92444
   332   2     1.96222   -13.73555    -3.92444
   333   2     5.88666   -13.73555    -3.92444
   334   2    -9.81111    -9.81111    -3.92444
   335   2    -5.88666    -9.81111    -3.92444
   336   2    -1.96222    -9.81111    -3.92444
   337   2     1.96222    -9.81111    -3.92444
   338   2     5.88666    -9.81111    -3.92444
   339   2     9.81111    -9.81111    -3.92444
   340   2   -13.73555    -5.88666    -3.92444
   341   2    -9.81111    -5.88666    -3.92444
   342   2    -5.88666    -5.88666    -3.92444
   343   2    -1.96222    -5.88666    -3.92444
   344   2     1.96222    -5.88666    -3.92444
   345   2     5.88666    -5.88666    -3.92444
   346   2     9.81111    -5.88666    -3.92444
   347   2    13.73555    -5.88666    -3.92444
   348   2   -13.73555    -1.96222    -3.92444
   349   2    -9.81111    -1.96222    -3.92444
   350   2    -5.88666    -1.96222    -3.92444
   351   2    -1.96222    -1.96222    -3.92444
   352   2     1.96222    -1.96222    -3.92444
   353   2     5.88666    -1.96222    -3.92444
   354   2     9.81111    -1.96222    -3.92444
   355   2    13.73555    -1.96222    -3.92444
   356   2   -13.73555     1.96222    -3.92444
   357   2    -9.81111     1.96222    -3.92444
   358   2    -5.88666     1.96222    -3.92444
   359   2    -1.96222     1.96222    -3.92444
   360   2     1.96222     1.96222    -3.92444
   361   2     5.88666     1.96222    -3.92444
   362   2     9.81111     1.96222    -3.92444
   363   2    13.73555     1.96222    -3.92444
   364   2   -13.73555     5.88666    -3.92444
   365   2    -9.81111     5.88666    -3.92444
   366   2    -5.88666     5.88666    -3.92444
   367   2    -1.96222     5.88666    -3.92444
   368   2     1.96222     5.88666    -3.92444
   369   2     5.88666     5.88666    -3.92444
   370   2     9.81111     5.88666    -3.92444
   371   2    13.73555     5.88666    -3.92444
   372   2    -9.81111     9.81111    -3.92444
   373   2    -5.88666     9.81111    -3.92444
   374   2    -1.96222     9.81111    -3.92444
   375   2     1.96222     9.81111    -3.92444
   376   2     5.88666     9.81111    -3.92444
   377   2     9.81111     9.81111    -3.92444
   378   2    -5.88666    13.73555    -3.92444
   379   2    -1.96222    13.73555    -3.92444
   380   2     1.96222    13.73555    -3.92444
   381   2     5.88666    13.73555    -3.92444
   382   2    -5.88666   -13.73555     0.00000
   383   2    -1.96222   -13.73555     0.00000
   384   2     1.96222   -13.73555     0.00000
   385   2     5.88666   -13.73555     0.00000
   386   2    -9.81111    -9.81111     0.00000
   387   2    -5.88666    -9.81111     0.00000
   388   2    -1.96222    -9.81111     0.00000
   389   2     1.96222    -9.81111     0.00000
   390   2     5.88666    -9.81111     0.00000
   391   2     9.81111    -9.81111     0.00000
   392   2   -13.73555    -5.88666     0.00000
   393   2    -9.81111    -5.88666     0.00000
   394   2    -5.88666    -5.88666     0.00000
   395   2    -1.96222    -5.88666     0.00000
   396   2     1.96222    -5.88666     0.00000
   397   2     5.88666    -5.88666     0.00000
   398   2     9.81111    -5.88666     0.00000
   399   2    13.73555    -5.88666     0.00000
   400   2   -13.73555    -1.96222     0.00000
   401   2    -9.81111    -1.96222     0.00000
   402   2    -5.88666    -1.96222     0.00000
   403   2    -1.96222    -1.96222     0.00000
   404   2     1.96222    -1.96222     0.00000
   405   2     5.88666    -1.96222     0.00000
   406   2     9.81111    -1.96222     0.00000
   407   2    13.73555    -1.96222     0.00000
   408   2   -13.73555     1.96222     0.00000
   409   2    -9.81111     1.96222     0.00000
   410   2    -5.88666     1.96222     0.00000
   411   2    -1.96222     1.96222     0.00000
   412   2     1.96222     1.96222     0.00000
   413   2     5.88666     1.96222     0.00000
   414   2     9.81111     1.96222     0.00000
   415   2    13.73555     1.96222     0.00000
   416   2   -13.73555     5.88666     0.00000
   417   2    -9.81111     5.88666     0.00000
   418   2    -5.88666     5.88666     0.00000
   419   2    -1.96222     5.88666     0.00000
   420   2     1.96222     5.88666     0.00000
   421   2     5.88666     5.88666     0.00000
   422   2     9.81111     5.88666     0.00000
   423   2    13.73555     5.88666     0.00000
   424   2    -9.81111     9.81111     0.00000
   425   2    -5.88666     9.81111     0.00000
   426   2    -1.96222     9.81111     0.00000
   427   2     1.96222     9.81111     0.00000
   428   2     5.88666     9.81111     0.00000
   429   2     9.81111     9.81111     0.00000
   430   2    -5.88666    13.73555     0.00000
   431   2    -1.96222    13.73555     0.00000
   432   2     1.96222    13.73555     0.00000
   433   2     5.88666    13.73555     0.00000
   434   2    -5.88666   -13.73555     3.92444
   435   2    -1.96222   -13.73555     3.92444
   436   2     1.96222   -13.73555     3.92444
   437   2     5.88666   -13.73555     3.92444
   438   2    -9.81111    -9.81111     3.92444
   439   2    -5.88666    -9.81111     3.92444
   440   2    -1.96222    -9.81111     3.92444
   441   2     1.96222    -9.81111     3.92444
   442   2     5.88666    -9.81111     3.92444
   443   2     9.81111    -9.81111     3.92444
   444   2   -13.73555    -5.88666     3.92444
   445   2    -9.81111    -5.88666     3.92444
   446   2    -5.88666    -5.88666     3.92444
   447   2    -1.96222    -5.88666     3.92444
   448   2     1.96222    -5.88666     3.92444
   449   2     5.88666    -5.88666     3.92444
   450   2     9.81111    -5.88666     3.92444
   451   2    13.73555    -5.88666     3.92444
   452   2   -13.73555    -1.96222     3.92444
   453   2    -9.81111    -1.96222     3.92444
   454   2    -5.88666    -1.96222     3.92444
   455   2    -1.96222    -1.96222     3.92444
   456   2     1.96222    -1.96222     3.92444
   457   2     5.88666    -1.96222     3.92444
   458   2     9.81111    -1.96222     3.92444
   459   2    13.73555    -1.96222     3.92444
   460   2   -13.73555     1.96222     3.92444
   461   2    -9.81111     1.96222     3.92444
   462   2    -5.88666     1.96222     3.92444
   463   2    -1.96222     1.96222     3.92444
   464   2     1.96222     1.96222     3.92444
   465   2     5.88666     1.96222     3.92444
   466   2     9.81111     1.96222     3.92444
   467   2    13.73555     1.96222     3.92444
   468   2   -13.73555     5.88666     3.92444
   469   2    -9.81111     5.88666     3.92444
   470   2    -5.88666     5.88666     3.92444
   471   2    -1.96222     5.88666     3.92444
   472   2     1.96222     5.88666     3.92444
   473   2     5.88666     5.88666     3.92444
   474   2     9.81111     5.88666     3.92444
   475   2    13.73555     5.88666     3.92444
   476   2    -9.81111     9.81111     3.92444
   477   2    -5.88666     9.81111     3.92444
   478   2    -1.96222     9.81111     3.92444
   479   2     1.96222     9.81111     3.92444
   480   2     5.88666     9.81111     3.92444
   481   2     9.81111     9.81111     3.92444
   482   2    -5.88666    13.73555     3.92444
   483   2    -1.96222    13.73555     3.92444
   484   2     1.96222    13.73555     3.92444
   485   2     5.88666    13.73555     3.92444
   486   2    -1.96222   -13.73555     7.84889
   487   2     1.96222   -13.73555     7.84889
   488   2    -9.81111    -9.81111     7.84889
   489   2    -5.88666    -9.81111     7.84889
   490   2    -1.96222    -9.81111     7.84889
   491   2     1.96222    -9.81111     7.84889
   492   2     5.88666    -9.81111     7.84889
   493   2     9.81111    -9.81111     7.84889
   494   2    -9.81111    -5.88666     7.84889
   495   2    -5.88666    -5.88666     7.84889
   496   2    -1.96222    -5.88666     7.84889
   497   2     1.96222    -5.88666     7.84889
   498   2     5.88666    -5.88666     7.84889
   499   2     9.81111    -5.88666     7.84889
   500   2   -13.73555    -1.96222     7.84889
   501   2    -9.81111    -1.96222     7.84889
   502   2    -5.88666    -1.96222     7.84889
   503   2    -1.96222    -1.96222     7.84889
   504   2     1.96222    -1.96222     7.84889
   505   2     5.88666    -1.96222     7.84889
   506   2     9.81111    -1.96222     7.84889
   507   2    13.73555    -1.96222     7.84889
   508   2   -13.73555     1.96222     7.84889
   509   2    -9.81111     1.96222     7.84889
   510   2    -5.88666     1.96222     7.84889
   511   2    -1.96222     1.96222     7.84889
   512   2     1.96222     1.96222     7.84889
   513   2     5.88666     1.96222     7.84889
   514   2     9.81111     1.96222     7.84889
   515   2    13.73555     1.96222     7.84889
   516   2    -9.81111     5.88666     7.84889
   517   2    -5.88666     5.88666     7.84889
   518   2    -1.96222     5.88666     7.84889
   519   2     1.96222     5.88666     7.84889
   520   2     5.88666     5.88666     7.84889
   521   2     9.81111     5.88666     7.84889
   522   2    -9.81111     9.81111     7.84889
   523   2    -5.88666     9.81111     7.84889
   524   2    -1.96222     9.81111     7.84889
   525   2     1.96222     9.81111     7.84889
   526   2     5.88666     9.81111     7.84889
   527   2     9.81111     9.81111     7.84889
   528   2    -1.96222    13.73555     7.84889
   529   2     1.96222    13.73555     7.84889
   530   2    -1.96222    -9.81111    11.77333
   531   2     1.96222    -9.81111    11.77333
   532   2    -5.88666    -5.88666    11.77333
   533   2    -1.96222    -5.88666    11.77333
   534   2     1.96222    -5.88666    11.77333
   535   2     5.88666    -5.88666    11.77333
   536   2    -9.81111    -1.96222    11.77333
   537   2    -5.88666    -1.96222    11.77333
   538   2    -1.96222    -1.96222    11.77333
   539   2     1.96222    -1.96222    11.77333
   540   2     5.88666    -1.96222    11.77333
   541   2     9.81111    -1.96222    11.77333
   542   2    -9.81111     1.96222    11.77333
   543   2    -5.88666     1.96222    11.77333
   544   2    -1.96222     1.96222    11.77333
   545   2     1.96222     1.96222    11.77333
   546   2     5.88666     1.96222    11.77333
   547   2     9.81111     1.96222    11.77333
   548   2    -5.88666     5.88666    11.77333
   549   2    -1.96222     5.88666    11.77333
   550   2     1.96222     5.88666    11.77333
   551   2     5.88666     5.88666    11.77333
   552   2    -1.96222     9.81111    11.77333
   553   2     1.96222     9.81111    11.77333
   554   2    -1.96222    -1.96222    15.69777
   555   2     1.96222    -1.96222    15.69777
   556   2    -1.96222     1.96222    15.69777
   557   2     1.96222     1.96222    15.69777
   558   2    -1.96222   -15.69777    -1.96222
   559   2     1.96222   -15.69777    -1.96222
   560   2    -1.96222   -15.69777     1.96222
   561   2     1.96222   -15.69777     1.96222
   562   2    -1.96222   -11.77333    -9.81111
   563   2     1.96222   -11.77333    -9.81111
   564   2    -5.88666   -11.77333    -5.88666
   565   2    -1.96222   -11.77333    -5.88666
   566   2     1.96222   -11.77333    -5.88666
   567   2     5.88666   -11.77333    -5.88666
   568   2    -9.81111   -11.77333    -1.96222
   569   2    -5.88666   -11.77333    -1.96222
   570   2    -1.96222   -11.77333    -1.96222
   571   2     1.96222   -11.77333    -1.96222
   572   2     5.88666   -11.77333    -1.96222
   573   2     9.81111   -11.77333    -1.96222
   574   2    -9.81111   -11.77333     1.96222
   575   2    -5.88666   -11.77333     1.96222
   576   2    -1.96222   -11.77333     1.96222
   577   2     1.96222   -11.77333     1.96222
   578   2     5.88666   -11.77333     1.96222
   579   2     9.81111   -11.77333     1.96222
   580   2    -5.88666   -11.77333     5.88666
   581   2    -1.96222   -11.77333     5.88666
   582   2     1.96222   -11.77333     5.88666
   583   2     5.88666   -11.77333     5.88666
   584   2    -1.96222   -11.77333     9.81111
   585   2     1.96222   -11.77333     9.81111
   586   2    -1.96222    -7.84889   -13.73555
   587   2     1.96222    -7.84889   -13.73555
   588   2    -9.81111    -7.84889    -9.81111
   589   2    -5.88666    -7.84889    -9.81111
   590   2    -1.96222    -7.84889    -9.81111
   591   2     1.96222    -7.84889    -9.81111
   592   2     5.88666    -7.84889    -9.81111
   593   2     9.81111    -7.84889    -9.81111
   594   2    -9.81111    -7.84889    -5.88666
   595   2    -5.88666    -7.84889    -5.88666
   596   2    -1.96222    -7.84889    -5.88666
   597   2     1.96222    -7.84889    -5.88666
   598   2     5.88666    -7.84889    -5.88666
   599   2     9.81111    -7.84889    -5.88666
   600   2   -13.73555    -7.84889    -1.96222
   601   2    -9.81111    -7.84889    -1.96222
   602   2    -5.88666    -7.84889    -1.96222
   603   2    -1.96222    -7.84889    -1.96222
   604   2     1.96222    -7.84889    -1.96222
   605   2     5.88666    -7.84889    -1.96222
   606   2     9.81111    -7.84889    -1.96222
   607   2    13.73555    -7.84889    -1.96222
   608   2   -13.73555    -7.84889     1.96222
   609   2    -9.81111    -7.84889     1.96222
   610   2    -5.88666    -7.84889     1.96222
   611   2    -1.96222    -7.84889     1.96222
   612   2     1.96222    -7.84889     1.96222
   613   2     5.88666    -7.84889     1.96222
   614   2     9.81111    -7.84889     1.96222
   615   2    13.73555    -7.84889     1.96222
   616   2    -9.81111    -7.84889     5.88666
   617   2    -5.88666    -7.84889     5.88666
   618   2    -1.96222    -7.84889     5.88666
   619   2     1.96222    -7.84889     5.88666
   620   2     5.88666    -7.84889     5.88666
   621   2     9.81111    -7.84889     5.88666
   622   2    -9.81111    -7.84889     9.81111
   623   2    -5.88666    -7.84889     9.81111
   624   2    -1.96222    -7.84889     9.81111
   625   2     1.96222    -7.84889     9.81111
   626   2     5.88666    -7.84889     9.81111
   627   2     9.81111    -7.84889     9.81111
   628   2    -1.96222    -7.84889    13.73555
   629   2     1.96222    -7.84889    13.73555
   630   2    -5.88666    -3.92444   -13.73555
   631   2    -1.96222    -3.92444   -13.73555
   632   2     1.96222    -3.92444   -13.73555
   633   2     5.88666    -3.92444   -13.73555
   634   2    -9.81111    -3.92444    -9.81111