4321
 Atoms. Timestep: 4193
3 0.0450779 -7.80917 -22.9059
3 -3.66695 -4.0275 -22.9481
3 0.0467469 -4.01786 -23.0221
1 3.79983 -4.04217 -22.7788
3 -7.64617 -0.0861667 -22.9198
2 -3.91412 -0.0420656 -23.2015
3 -0.173613 0.0514405 -23.0984
2 3.82028 0.168421 -22.8415
3 7.75357 0.0104581 -22.7002
2 -4.10642 3.81435 -22.9448
3 0.074765 4.05923 -23.1532
3 3.88577 3.87111 -22.8678
2 0.0565582 7.84092 -23.178
3 -7.60926 -11.7394 -19.0842
3 -3.62441 -11.9214 -19.1181
1 0.251976 -11.9209 -19.1778
2 3.97243 -11.7821 -19.1405
3 7.92379 -11.4654 -18.7914
3 -11.3414 -8.02222 -19.3093
2 -7.58668 -7.93085 -19.239
2 -3.55117 -7.92879 -19.2069
3 0.0998835 -7.90954 -19.223
1 3.73441 -7.94387 -19.2997
2 7.68488 -7.81221 -18.9469
2 11.6013 -7.9415 -18.8131
2 -11.739 -4.19197 -19.393
2 -7.64269 -4.01542 -19.4786
2 -3.72809 -3.96958 -19.3477
1 0.0461095 -3.9493 -19.3577
3 3.74047 -3.98478 -19.5147
2 7.74152 -3.79818 -19.1365
2 11.6122 -3.99751 -18.9803
2 -11.4911 0.00112488 -19.441
1 -7.74492 -0.09137 -19.2761
2 -3.86929 0.0142288 -19.4283
1 -0.03865 0.0251083 -19.4184
3 3.73675 -0.0268457 -19.404
2 7.74229 0.135492 -19.3224
3 11.5093 -0.0711553 -19.132
3 -11.4792 3.6999 -19.2684
2 -7.70851 3.62613 -19.4215
2 -4.02976 3.85478 -19.5818
3 -0.116175 3.89079 -19.4386
2 3.87797 4.01702 -19.2788
3 7.69967 3.94246 -19.3467
3 11.4828 3.87276 -19.2063
3 -11.3082 7.8343 -19.1971
2 -7.67252 7.68787 -19.2924
2 -3.86607 7.98612 -19.4164
2 -0.07325 8.04034 -19.4787
3 3.80499 8.01504 -19.3679
2 7.57283 7.90546 -19.1769
2 11.499 8.16689 -19.1743
3 -7.78862 11.5979 -19.1342
2 -4.05214 11.6436 -19.3828
2 -0.109309 11.6676 -19.4745
2 3.89039 11.8724 -19.3052
3 7.69093 11.5443 -19.1322
3 -7.69868 -15.2535 -15.2387
1 -3.75054 -15.7003 -15.5736
3 0.0766611 -15.5595 -15.3791
2 3.97699 -15.7079 -15.3964
3 7.83259 -15.4462 -15.1708
3 -11.4876 -11.8142 -15.37
2 -7.52932 -11.8042 -15.435
3 -3.73321 -11.8693 -15.4304
2 0.165927 -11.8446 -15.5069
1 3.89751 -11.7699 -15.3538
2 7.6043 -11.6169 -15.3086
1 11.976 -12.0192 -15.3763
3 -15.0646 -7.8211 -15.3821
1 -11.5962 -7.87751 -15.463
2 -7.68094 -7.83504 -15.4608
2 -3.78866 -7.83947 -15.4596
1 0.119059 -7.94283 -15.5497
1 3.74542 -7.76603 -15.5302
1 7.71475 -7.69772 -15.3465
2 11.7011 -7.90808 -15.2827
3 15.2827 -7.86683 -15.2204
2 -15.5123 -4.00907 -15.7544
2 -11.7062 -3.93592 -15.6192
1 -7.6188 -3.96202 -15.6022
1 -3.85243 -3.94749 -15.582
2 -0.100306 -3.84956 -15.5769
1 3.75619 -3.81635 -15.532
2 7.6431 -3.93019 -15.4645
2 11.6999 -3.93866 -15.369
2 15.5654 -3.97362 -15.5875
1 -15.5282 -0.186954 -15.3712
2 -11.6219 -0.044431 -15.6689
2 -7.73394 -0.0757706 -15.6854
1 -3.979 -0.0419874 -15.5665
3 -0.0763675 0.00354772 -15.7559
3 3.72185 -0.0935096 -15.5171
2 7.68868 -0.0764733 -15.5805
2 11.5023 0.0389636 -15.4569
2 15.2408 -0.242674 -15.302
3 -15.3175 3.76777 -15.4852
2 -11.6009 3.73938 -15.7453
2 -7.76973 3.82605 -15.6733
2 -4.02146 3.8002 -15.5932
1 -0.184209 4.03342 -15.8001
2 3.69131 4.05825 -15.6707
3 7.74658 3.93361 -15.5385
2 11.5538 3.79276 -15.4621
2 15.4189 3.84956 -15.3042
3 -15.1166 7.59105 -15.3909
1 -11.4578 7.62774 -15.4657
3 -7.59642 7.77699 -15.6868
1 -3.75243 7.87301 -15.6467
2 -0.0444418 7.78186 -15.6529
2 3.64662 7.82916 -15.7237
1 7.6462 7.79305 -15.5399
2 11.361 7.77038 -15.4146
3 15.1578 7.81838 -15.1988
1 -11.7414 11.6843 -15.6364
2 -7.82604 11.7229 -15.4428
3 -3.82704 11.726 -15.5648
2 -0.084735 11.8076 -15.5796
1 3.84431 11.6896 -15.598
2 7.64497 11.5486 -15.4172
3 11.3332 11.6082 -15.4411
3 -7.82568 15.4651 -15.3258
1 -3.94614 15.8177 -15.6585
1 -0.104576 15.4671 -15.5307
1 3.67103 16.168 -16.0474
3 7.72743 15.3568 -15.2367
3 -7.77097 -19.0905 -11.33
3 -3.75744 -19.3299 -11.7287
1 0.00736091 -19.4304 -11.6536
3 3.79517 -19.255 -11.5854
2 7.83864 -19.2479 -11.3728
2 -11.5885 -15.6141 -11.4537
2 -7.77517 -15.4933 -11.4418
1 -3.76273 -15.506 -11.5828
2 0.0918922 -15.6777 -11.711
1 3.88578 -15.4798 -11.5351
2 7.81056 -15.5532 -11.5428
2 11.7699 -15.4415 -11.4444
2 -15.3435 -11.7609 -11.5904
2 -11.5925 -11.7196 -11.6731
2 -7.7874 -11.7592 -11.5668
2 -3.85133 -11.737 -11.5808
2 -0.0210736 -11.6897 -11.6678
2 3.84414 -11.6607 -11.6852
2 7.68469 -11.6415 -11.677
3 11.5884 -11.682 -11.5828
3 15.4865 -11.4356 -11.4112
1 -18.9683 -7.8087 -11.484
2 -15.3307 -7.87599 -11.551
3 -11.3921 -7.76318 -11.7037
1 -7.60091 -7.92027 -11.7023
2 -3.78268 -7.88133 -11.7342
2 -0.0904689 -7.85592 -11.7016
1 3.71721 -7.73748 -11.7573
1 7.5785 -7.75761 -11.6978
1 11.4678 -7.71287 -11.6587
2 15.5012 -7.70435 -11.3723
2 19.1118 -7.5127 -11.5378
2 -19.0121 -4.08936 -11.6626
1 -15.3496 -3.94263 -11.6859
1 -11.4265 -4.01469 -11.6655
1 -7.71875 -3.93799 -11.7689
2 -3.96459 -3.90368 -11.6612
2 -0.00393326 -3.80318 -11.7468
2 3.69545 -3.89075 -11.7401
1 7.55415 -3.78075 -11.7264
2 11.5342 -3.71317 -11.628
2 15.3975 -3.94948 -11.6162
3 18.9609 -3.81923 -11.5825
3 -19.0931 -0.00296467 -11.6888
1 -15.3301 -0.188321 -11.885
2 -11.449 0.0289267 -11.7692
2 -7.74028 0.046678 -11.7504
1 -3.86967 0.0525723 -11.8247
2 -0.154446 0.0851633 -11.7926
2 3.69855 0.0652772 -11.7454
2 7.65239 0.0936524 -11.8086
2 11.4407 -0.00309885 -11.5986
3 15.3663 0.0770499 -11.5295
2 19.1159 -0.120386 -11.7264
1 -19.1678 3.99867 -11.723
2 -15.2759 3.75248 -11.7006
1 -11.4868 3.86644 -11.8196
1 -7.7965 3.79768 -11.8991
2 -3.84197 3.84737 -11.7795
2 -0.134921 3.86271 -11.8105
2 3.7043 3.98316 -11.8169
2 7.56524 4.05921 -11.8111
1 11.4383 3.83078 -11.5905
1 15.3112 3.74204 -11.7182
3 18.9604 3.83581 -11.6765
1 -18.804 7.64521 -11.4677
2 -15.2764 7.75568 -11.5726
1 -11.5438 7.70049 -11.7571
2 -7.905 7.64277 -11.7897
1 -3.74893 7.93097 -11.8044
2 0.0327661 7.96164 -11.8713
1 3.75621 7.84673 -11.809
2 7.6007 7.71346 -11.6951
1 11.4968 7.64956 -11.6966
2 14.96 7.68328 -11.6638
3 18.7669 7.62197 -11.5552
3 -15.3133 11.6 -11.5499
2 -11.4609 11.5562 -11.7285
2 -7.73349 11.7418 -11.6685
2 -3.79354 11.6696 -11.7287
1 0.0297029 11.6499 -11.7122
3 3.94527 11.7214 -11.8133
1 7.5707 11.5048 -11.5516
2 11.4669 11.5097 -11.5322
3 15.1948 11.2726 -11.5753
3 -11.6683 15.38 -11.7372
1 -7.75226 15.5857 -11.5735
1 -3.86047 15.7115 -11.621
1 0.0681163 15.7377 -11.963
3 3.8907 15.4967 -11.6695
3 7.69394 15.3631 -11.5176
2 11.5861 15.4542 -11.702
3 -7.75689 18.9729 -11.315
3 -3.89024 19.4084 -11.6263
3 0.0247568 19.2764 -11.4889
2 3.89141 19.2381 -11.547
3 7.8135 19.0995 -11.3242
2 0.0922865 -22.9474 -7.58034
3 -11.5962 -19.0595 -7.55287
2 -7.78738 -19.4487 -7.43408
3 -3.71954 -19.331 -7.85983
2 -0.0682061 -19.367 -7.65151
2 3.97817 -19.3509 -7.49828
2 8.04805 -19.2519 -7.31917
1 11.9373 -19.0569 -7.77856
3 -15.2771 -15.2216 -7.58632
1 -11.569 -15.5133 -7.68021
2 -7.83993 -15.4861 -7.62142
2 -3.77785 -15.5862 -7.71339
3 -0.00298565 -15.5848 -7.67804
2 3.94052 -15.4559 -7.7389
2 7.88785 -15.5691 -7.77373
2 11.671 -15.2829 -7.81761
1 15.6739 -15.2711 -7.77716
2 -18.9245 -11.5379 -7.61436
3 -15.4098 -11.4967 -7.55816
3 -11.5058 -11.6238 -7.76953
1 -7.82222 -11.6658 -7.8677
2 -3.93184 -11.8956 -7.67221
2 -0.0466107 -11.6576 -7.71429
2 3.71133 -11.7435 -7.84824
2 7.7057 -11.7415 -7.66812
1 11.5468 -11.5732 -7.69571
1 15.3641 -11.3299 -7.66441
3 18.9341 -11.0587 -7.47415
3 -19.0167 -7.80193 -7.64221
2 -15.2549 -7.64127 -7.78671
1 -11.55 -7.8526 -7.78709
3 -7.57265 -7.8846 -7.73885
2 -4.01427 -7.88127 -7.87595
1 -0.0879804 -7.7538 -7.89348
2 3.74551 -7.83681 -7.85964
1 7.51295 -7.833 -7.90504
2 11.5354 -7.73767 -7.86746
2 15.4227 -7.70146 -7.6455
1 19.1735 -7.56626 -7.64033
2 -18.9704 -3.83758 -7.79976
2 -15.3661 -3.87258 -7.82458
2 -11.505 -3.84726 -7.86517
2 -7.69986 -3.77379 -7.73771
2 -3.85818 -3.99277 -7.93969
1 -0.0657758 -4.00842 -7.88325
1 3.68894 -3.80021 -7.91177
2 7.39203 -4.01659 -7.893
1 11.5152 -3.88533 -7.84833
2 15.3141 -3.76621 -7.77772
1 19.1695 -3.84341 -7.6944
3 -22.4957 0.11126 -7.75292
3 -19.047 -0.0239479 -7.74325
2 -15.2809 -0.0193226 -7.74
2 -11.5643 0.0672909 -7.96618
1 -7.66821 0.029361 -7.79683
2 -3.79558 0.0665457 -7.88814
1 -0.106729 0.133057 -8.05824
1 3.75214 0.0873808 -8.00388
2 7.65454 0.0126247 -7.88933
1 11.2735 0.046691 -7.82015
2 15.311 0.177144 -7.80527
1 19.1785 -0.100334 -7.68826
2 22.3946 0.26818 -7.56966
3 -18.9855 3.9336 -7.69501
2 -15.3351 3.90939 -7.82201
3 -11.4371 3.89315 -7.91061
2 -7.82658 3.85372 -8.01941
1 -3.89203 3.84699 -7.98639
2 -0.139388 4.02588 -7.99689
1 3.71965 3.93589 -7.87388
3 7.5656 3.75302 -7.80451
3 11.4957 3.81714 -7.74716
2 15.2543 3.68915 -7.83044
2 19.1789 3.80369 -7.86475
3 -19.1563 7.52236 -7.7692
1 -15.4979 7.70881 -7.76196
1 -11.5016 7.8643 -7.92596
3 -7.7109 7.88278 -8.04701
2 -3.84179 7.74747 -7.94892
2 -0.0689322 7.8208 -7.8357
2 3.69805 7.69333 -7.779
3 7.569 7.73243 -7.97595
2 11.4094 7.58065 -7.67129
2 15.3464 7.58284 -7.61275
3 18.9702 7.65412 -7.58449
3 -18.9874 11.5217 -7.74475
2 -15.3727 11.658 -7.7923
1 -11.5599 11.5703 -7.87306
2 -7.7868 11.6938 -7.82384
3 -3.88953 11.7289 -8.00457
2 -0.10839 11.7139 -7.88958
2 3.88074 11.5733 -7.82365
1 7.48434 11.3853 -7.8086
2 11.4857 11.312 -7.57491
2 15.1142 11.3335 -7.62518
3 18.7075 11.3875 -7.76313
1 -15.3232 15.2496 -7.73102
3 -11.4659 15.4032 -7.79698
3 -7.63744 15.5777 -7.83668
2 -3.84994 15.6267 -7.80534
2 0.0165189 15.5903 -7.88026
3 3.83334 15.4655 -7.78602
1 7.69963 15.2712 -7.79603
2 11.3976 15.3343 -7.65507
3 15.2258 14.9407 -7.62022
3 -11.4843 19.0587 -7.69178
2 -7.65513 19.268 -7.6549
3 -3.7538 19.2563 -7.83113
2 0.0251932 19.2518 -7.73389
2 3.87934 19.2399 -7.75797
3 7.79346 19.0005 -7.57865
3 11.3877 18.9528 -7.59907
3 -0.00245679 22.6647 -7.60403
3 -4.02292 -22.7826 -3.9304
2 0.119578 -22.7663 -3.67418
3 3.90854 -22.8049 -3.65487
1 -11.6716 -19.097 -3.64835
3 -7.86508 -19.3752 -3.76703
1 -3.91211 -19.5053 -3.81881
3 0.0901156 -19.3429 -3.79869
2 3.83434 -19.3199 -3.77379
2 7.82246 -19.2987 -3.84111
2 11.9249 -19.4108 -3.91407
1 -15.5486 -15.4393 -3.68729
3 -11.7279 -15.413 -3.78559
2 -7.91805 -15.4525 -3.72688
2 -3.82353 -15.6408 -3.90484
2 -0.0348128 -15.6212 -3.85333
2 3.8382 -15.5546 -4.06271
2 7.85953 -15.5841 -3.87655
2 11.7418 -15.3751 -3.56556
3 15.466 -15.1558 -3.69608
2 -19.1864 -11.478 -3.86995
2 -15.3546 -11.5332 -3.83506
3 -11.5371 -11.5154 -3.84135
2 -7.72226 -11.6418 -3.88196
2 -3.9371 -11.7619 -3.8891
1 -0.0420476 -11.7264 -3.85875
2 3.75811 -11.6489 -3.94791
3 7.70502 -11.5801 -3.96207
1 11.5167 -11.4916 -3.79987
2 15.3906 -11.4914 -3.78217
3 19.2158 -11.3689 -3.57994
3 -19.2073 -7.64068 -3.9439
2 -15.2482 -7.54657 -3.85651
2 -11.5821 -7.60511 -4.06554
2 -7.61044 -7.59508 -3.90467
2 -3.99539 -7.70579 -3.96727
1 -0.166687 -7.75809 -3.9461
1 3.71855 -7.6861 -3.93478
1 7.62781 -7.82057 -3.98677
1 11.5149 -7.7046 -3.9753
2 15.3704 -7.62449 -3.7901
1 19.0687 -7.63676 -3.7959
2 -22.7514 -3.81481 -4.00597
1 -19.1757 -3.81321 -3.86517
2 -15.2987 -3.61882 -3.90847
1 -11.4743 -3.8436 -4.02553
2 -7.74544 -3.92521 -3.99594
1 -3.83713 -3.97522 -4.04009
2 -0.216985 -3.78404 -4.08752
2 3.65874 -3.85873 -3.9942
1 7.57386 -3.83255 -3.92903
2 11.4195 -3.80091 -3.92928
2 15.341 -3.75414 -3.80405
2 19.0758 -3.79257 -3.76998
1 22.9638 -3.92621 -3.72431
3 -22.8669 0.0731145 -4.0021
3 -19.0696 0.134736 -3.9296
1 -15.1546 -0.0162217 -4.0611
2 -11.4498 -0.0600159 -3.98198
1 -7.66546 0.0783909 -4.06241
2 -3.80949 0.0564848 -4.05619
2 -0.150786 -0.135177 -4.09049
2 3.64807 0.00517699 -4.17914
2 7.64344 -0.116522 -4.00055
1 11.5441 0.0541539 -3.91157
1 15.3153 0.150836 -3.91976
2 19.1586 -0.112429 -3.56104
2 22.9068 0.118315 -3.67983
3 -22.6253 4.02746 -3.86621
1 -19.2243 4.00802 -3.89671
2 -15.4262 3.97098 -3.86655
2 -11.4228 3.86847 -4.03908
2 -7.59694 4.01687 -4.00623
2 -3.72832 3.97581 -3.9307
2 -0.0452434 3.80687 -3.94114
1 3.67212 4.01903 -3.98438
2 7.52742 3.82456 -3.86353
1 11.3525 3.89694 -3.84789
2 15.2707 3.85812 -3.90527
2 19.1686 3.90542 -3.75493
3 22.6509 3.75519 -3.90492
1 -19.089 7.80238 -3.89049
2 -15.3593 7.70826 -3.9081
2 -11.4201 7.80428 -4.11001
2 -7.73631 7.9761 -3.9615
2 -3.7535 7.73487 -4.14936
2 -0.166585 7.8425 -4.04238
2 3.73883 7.73837 -4.00261
3 7.54274 7.66796 -4.0292
3 11.4562 7.53566 -3.91776
2 15.3675 7.65328 -3.90054
2 19.0599 7.57597 -3.90688
1 -19.2445 11.8124 -3.88287
3 -15.4008 11.5383 -3.94717
1 -11.4742 11.5802 -3.94135
1 -7.80406 11.5932 -3.93252
3 -3.82077 11.7234 -4.02034
1 -0.118385 11.7986 -4.01789
2 3.84337 11.6451 -3.97197
2 7.41983 11.4819 -4.00808
2 11.4849 11.3164 -3.77245
2 15.253 11.4446 -3.89188
3 18.8852 11.6132 -4.03543
2 -15.257 15.3735 -3.82521
2 -11.4678 15.3506 -4.04943
2 -7.7392 15.334 -3.90261
2 -3.9772 15.5694 -3.89943
2 -0.0404052 15.4647 -3.95941
1 3.76758 15.4802 -3.92978
2 7.55125 15.4374 -3.85478
2 11.3962 15.1887 -3.83946
1 15.3423 15.2212 -3.81263
3 -11.5417 19.143 -3.67139
2 -7.72693 19.3379 -3.68382
3 -3.82831 19.3181 -3.75429
2 0.0138817 19.266 -3.69199
2 3.86261 19.12 -3.86599
1 7.6888 18.9906 -3.73491
3 11.5021 18.7801 -3.80773
3 -4.09179 22.9165 -3.68617
2 -0.180438 22.7983 -3.79087
3 3.94288 22.8304 -3.93762
3 -7.58064 -22.9848 0.178282
3 -3.57003 -22.8806 0.204014
3 0.188169 -22.9565 0.203908
2 3.80706 -22.8174 0.24711
3 7.63932 -22.8066 0.388101
3 -11.6183 -19.1144 -0.00899274
3 -7.69417 -19.2309 0.075901
1 -3.7901 -19.311 0.118834
3 0.0416639 -19.215 0.00330484
3 3.8983 -19.2301 0.0221748
2 7.66784 -19.242 0.400021
2 11.4828 -19.0803 0.182506
2 -15.3888 -15.3115 0.0716198
2 -11.6827 -15.4667 0.0589187
2 -7.88949 -15.4777 0.0256437
1 -3.92428 -15.4917 -0.100265
1 0.0133625 -15.6204 -0.188688
1 3.83159 -15.6225 -0.106803
1 7.59293 -15.3909 0.0552337
1 11.635 -15.285 0.229255
3 15.349 -15.2598 0.1924
2 -19.2051 -11.4098 0.102765
2 -15.3495 -11.4676 0.101926
1 -11.4651 -11.4741 -0.0531388
2 -7.78203 -11.5899 -0.011014
1 -3.84938 -11.6082 -0.0997241
1 -0.0198509 -11.6463 -0.0709067
1 3.81019 -11.5666 -0.109961
2 7.68894 -11.5924 -0.0258549
3 11.4564 -11.6072 -0.0607453
1 15.37 -11.4504 0.0512975
3 18.9845 -11.2775 0.223765
3 -22.6639 -7.29981 0.0136001
2 -19.1569 -7.56159 0.10746
2 -15.3385 -7.65547 -0.00635944
2 -11.4331 -7.66846 -0.0807634
2 -7.71147 -7.65916 -0.0390465
3 -4.01578 -7.68038 -0.0972041
1 -0.157391 -7.77479 -0.151671
2 3.96886 -7.74273 -0.189711
2 7.53943 -7.76031 -0.279472
1 11.4923 -7.67251 -0.111531
2 15.3077 -7.55342 0.118977
3 19.0747 -7.62361 0.216585
3 22.5154 -7.45926 0.111628
2 -22.891 -3.74368 0.125664
2 -19.0767 -3.73439 0.0705789
2 -15.4587 -3.88695 -0.116018
2 -11.3813 -3.76992 0.0705793
1 -7.68912 -3.89216 -0.206138
2 -3.9438 -3.91741 -0.325029
3 -0.0743191 -3.83925 0.0720191
1 3.83772 -3.87546 -0.0502902
2 7.6556 -3.58527 -0.202932
2 11.4751 -3.85864 -0.0684908
2 15.3746 -3.76334 0.031756
1 19.0377 -3.84489 0.139848
3 22.749 -4.03218 0.284817
1 -22.584 0.125745 0.116597
2 -19.0535 0.155329 0.118964
2 -15.2615 0.0616711 -0.0706391
1 -11.3886 -0.0433695 -0.0522032
2 -7.52198 0.15748 -0.116871
1 -3.72616 -0.0721781 -0.0663885
2 -0.070305 -0.083481 -0.0855287
1 3.74824 -0.080388 -0.144941
2 7.5924 0.0767625 0.0489782
3 11.3338 -0.023133 -0.0603035
2 15.3317 0.167727 0.0264606
1 19.1634 0.018318 0.138004
2 22.854 0.0859363 0.117417
3 -22.7248 3.93718 -0.0106718
2 -19.0461 3.91063 -0.0281951
1 -15.2182 3.97216 -0.0752263
1 -11.331 3.99456 -0.128247
3 -7.57311 3.95879 -0.156789
2 -3.6941 3.91621 -0.071952
2 -0.0205026 3.87931 -0.121349
2 3.73518 3.86174 0.0683096
2 7.59791 3.83746 -0.0380186
2 11.4415 3.88951 -0.0792211
2 15.3767 3.77782 -0.0313815
2 19.096 3.74873 0.214903
3 22.8664 3.66738 0.158517
3 -22.5859 7.73905 0.0768557
2 -19.1467 7.64092 0.035997
2 -15.2703 7.79041 -0.0387902
2 -11.4817 7.77856 -0.0999024
2 -7.58565 7.89632 -0.117011
2 -3.86517 7.93965 -0.035078
1 0.0383024 7.80693 -0.0719306
1 3.75115 7.73509 -0.00233915
2 7.42377 7.61216 -0.0871271
2 11.4779 7.70834 0.0768735
2 15.404 7.77913 0.0323044
1 19.213 7.67471 0.0692452
3 22.5771 7.44468 0.00284951
3 -19.0327 11.4745 0.067629
1 -15.1381 11.4985 0.123856
1 -11.4981 11.5843 0.130562
2 -7.64341 11.598 -0.0589624
1 -3.87361 11.6504 -0.191
2 0.0539937 11.5677 -0.109578
3 3.87483 11.5849 -0.0173188
2 7.66954 11.46 0.0159284
1 11.4849 11.4658 -0.0111392
2 15.3203 11.5279 -0.096827
3 19.1408 11.5016 -0.0558181
2 -15.0744 15.2773 -0.0207243
1 -11.5128 15.5232 0.125696
1 -7.66806 15.521 0.301544
2 -3.78185 15.4874 0.0853963
1 -0.0070363 15.4719 0.0732819
2 3.78006 15.556 -0.00601808
1 7.52986 15.2504 0.0667243
3 11.3785 15.2711 0.0160587
3 15.2163 15.1191 0.0125491
3 -11.5917 19.0256 0.170357
2 -7.5933 19.2867 0.0340403
1 -3.95216 19.1335 0.0971544
1 -0.0369758 19.2003 0.0682126
2 3.80343 19.2407 0.110009
2 7.57481 19.0974 -0.0125813
2 11.2921 19.0538 0.0321601
3 -7.43881 22.586 0.0768837
3 -4.05089 22.7173 0.141678
3 -0.0884882 22.9002 0.145229
3 3.93119 22.7615 0.0368627
3 7.54791 22.4372 0.0925885
1 -3.98765 -22.957 4.04887
3 0.130641 -22.8978 3.9698
3 3.72556 -22.7058 4.02083
2 -11.5446 -19.0731 3.92978
1 -7.72452 -19.1646 3.95187
1 -3.81742 -19.2546 3.71313
1 -0.0161565 -19.1773 3.86143
2 3.88351 -19.2031 4.01761
3 7.72408 -18.9959 3.93023
3 11.536 -19.1037 4.13311
1 -15.4624 -15.3689 4.01588
2 -11.5286 -15.3893 3.97956
1 -7.74688 -15.2565 3.72164
2 -3.85359 -15.4849 3.76317
2 -0.0431911 -15.3015 3.84859
1 3.92171 -15.3452 3.92979
2 7.66994 -15.3285 3.91693
2 11.4615 -15.1279 3.91135
3 15.4028 -15.1876 4.04082
3 -19.0444 -11.3976 3.87281
1 -15.2539 -11.4478 3.89929
2 -11.5446 -11.5258 3.93037
1 -7.749 -11.5246 3.83521
2 -3.79348 -11.4725 3.90845
1 -0.0555481 -11.4977 3.70179
3 3.75674 -11.5524 3.76142
2 7.6678 -11.5705 3.86079
2 11.4585 -11.3961 3.85654
3 15.3036 -11.2849 3.94918
3 19.0568 -11.3999 4.09414
3 -19.0553 -7.68839 3.80222
2 -15.2191 -7.45358 3.7407
1 -11.4617 -7.69853 3.73305
1 -7.52141 -7.67751 3.8335
2 -3.74738 -7.47091 3.91414
2 0.0588551 -7.73823 3.78701
2 3.87598 -7.6962 3.84832
3 7.6525 -7.65516 3.81642
2 11.4006 -7.56551 3.7287
2 15.3086 -7.53894 3.95337
2 19.2512 -7.63113 4.14507
3 -22.5742 -4.00912 3.9696
3 -18.9887 -3.70464 3.75533
1 -15.3421 -3.72773 3.73922
1 -11.353 -3.87892 3.71141
2 -7.58277 -3.73846 3.9154
3 -3.7589 -3.78504 3.77012
1 0.0878238 -3.8174 3.83022
1 3.93075 -3.95916 3.81857
2 7.79169 -3.76243 3.81486
2 11.3736 -3.70328 3.83528
2 15.2671 -3.69167 3.81668
3 19.0399 -3.80089 3.89329
3 22.7305 -3.84965 3.97071
3 -22.6108 0.230032 4.00049
3 -18.9456 0.105177 3.82407
2 -15.309 -0.00841168 3.68809
1 -11.4379 -0.004313 3.78119
1 -7.52067 0.093855 3.70733
2 -3.7485 -0.00729857 3.83788
1 0.0138843 -0.000921182 3.80982
1 3.82189 0.12126 3.90749
2 7.60506 -0.0693965 3.91803
2 11.4128 0.179711 3.65869
1 15.2889 -0.0124814 3.85229
1 19.1302 0.0511067 3.93441
3 22.7603 0.109659 3.90438
2 -22.6921 3.81471 4.06784
2 -19.0266 3.88496 3.93652
1 -15.262 3.97865 3.77813
2 -11.4879 3.99971 3.83566
1 -7.52516 3.89583 3.81585
1 -3.83339 3.97694 3.70869
2 0.0361093 3.75468 3.97256
2 3.8917 3.83108 3.87467
2 7.65357 3.93665 4.01748
2 11.4149 3.83154 3.81505
2 15.313 3.78092 3.91699
1 19.1624 3.80734 3.82986
1 22.7208 3.75855 3.89779
2 -18.9968 7.67456 4.01215
2 -15.3232 7.71877 3.91528
2 -11.4144 7.76243 3.9966
2 -7.52433 7.70531 3.84665
1 -3.71796 7.8545 3.88528
1 -0.0449117 7.9059 3.85701
2 3.78454 7.78746 3.90512
1 7.74644 7.57269 3.84637
1 11.5953 7.6178 3.84647
2 15.2107 7.51995 3.88538
2 19.1291 7.57291 3.91021
1 -19.111 11.4627 4.10555
2 -15.2173 11.7809 4.06252
1 -11.4702 11.4449 4.03481
1 -7.7159 11.5022 4.10812
2 -3.77962 11.7882 3.77892
1 0.0867018 11.5983 3.86374
2 3.96591 11.5172 3.92999
2 7.52678 11.5039 3.90102
2 11.5674 11.477 4.05626
2 15.2943 11.5426 3.97781
3 19.039 11.455 3.89568
2 -15.2944 15.2296 4.12418
1 -11.4941 15.2856 4.12227
2 -7.5482 15.3484 4.12122
2 -3.71438 15.4009 3.92985
2 -0.0768232 15.4837 3.96729
1 3.86746 15.3308 3.8879
1 7.70511 15.3386 3.9019
3 11.5579 15.3361 3.96616
2 15.4048 15.3842 3.93072
3 -11.5437 19.0234 4.05327
1 -7.60223 19.1975 4.09255
1 -3.86474 19.1554 4.08783
2 -0.11212 19.2313 4.04008
1 3.8493 19.1034 3.90016
2 7.52766 19.1601 3.92942
2 11.4442 19.1402 4.03811
1 -3.92706 22.7344 3.88156
2 -0.00149221 22.7981 3.90494
3 3.95095 22.8369 3.94402
3 0.0287434 -22.6316 7.68337
3 -11.3684 -18.981 7.65221
3 -7.66365 -19.2079 7.65085
3 -3.79746 -19.1559 7.82886
2 0.047483 -19.2091 7.81844
2 3.8855 -19.0498 7.8667
2 7.58121 -19.0599 7.74178
2 11.361 -18.9075 7.91987
2 -15.3015 -15.3271 7.79231
2 -11.4742 -15.4046 7.6213
2 -7.58234 -15.4121 7.65178
1 -3.85383 -15.383 7.68843
2 0.0924301 -15.3537 7.79275
2 3.73211 -15.2217 7.83667
1 7.57487 -15.1475 7.69544
1 11.4089 -15.1462 7.81362
2 15.3967 -15.333 7.98717
3 -18.89 -11.4411 7.65302
1 -15.3122 -11.5419 7.60251
1 -11.3276 -11.5764 7.57792
1 -7.73669 -11.5288 7.81673
3 -3.80226 -11.4354 7.78634
2 -0.0317453 -11.47 7.81655
2 3.69783 -11.5126 7.70557
2 7.74948 -11.4917 7.68818
2 11.5344 -11.5503 7.73118
1 15.2441 -11.3293 7.88184
1 18.8028 -11.3758 8.07791
1 -18.9626 -7.64666 7.64334
2 -15.1713 -7.77879 7.70093
1 -11.4773 -7.75052 7.64708
3 -7.56969 -7.63712 7.6737
2 -3.75261 -7.65723 7.90153
1 0.0847015 -7.53642 7.73567
3 3.78672 -7.68123 7.64858
2 7.60364 -7.65444 7.72406
2 11.2709 -7.49966 7.75575
3 15.1151 -7.56856 7.67796
3 19.0903 -7.60214 7.79351
3 -19.0147 -3.93707 7.66876
2 -15.2027 -3.88074 7.69615
1 -11.3484 -3.99724 7.72008
2 -7.46042 -3.85156 7.76295
2 -3.76056 -3.80649 7.77486
2 -0.0800873 -3.80952 7.54129
2 3.66237 -3.81354 7.77377
3 7.52232 -3.93426 7.82393
2 11.2948 -3.80324 7.82667
3 15.2591 -3.71447 7.653
1 19.0386 -3.80595 7.73007
3 -22.3196 -0.0332625 7.71971
1 -18.8837 -0.0395828 7.76623
1 -15.1629 -0.126678 7.75485
1 -11.4523 0.0924652 7.66157
2 -7.56594 0.13719 7.65987
2 -3.6929 0.151067 7.77082
1 -0.0850217 -0.0431362 7.82124
1 3.8715 -0.0729928 7.80142
3 7.57895 0.0671122 7.83048
2 11.3612 0.0382064 7.82937
1 15.2919 0.0155045 7.74117
2 19.0866 0.0242654 7.75589
3 22.5979 0.214966 7.72513
2 -18.9747 3.87442 7.75071
2 -15.2421 3.88952 7.83556
1 -11.4486 3.92762 7.71
2 -7.49947 3.82829 7.60287
2 -3.69047 3.87033 7.7887
2 0.00951257 3.85702 7.86043
2 3.65651 3.95409 7.62572
1 7.67652 3.81717 7.86237
1 11.4445 3.76941 7.83997
1 15.3667 3.73375 7.75824
3 18.9872 3.75675 7.75276
2 -18.9562 7.58672 7.77748
1 -15.2076 7.68707 7.80158
2 -11.3933 7.76075 7.78891
1 -7.4415 7.62371 7.80766
2 -3.86098 7.63706 7.88002
2 -0.0693068 7.76275 7.90148
1 3.68948 7.71675 7.70549
2 7.63113 7.67001 7.84767
1 11.532 7.69215 7.758
2 15.2763 7.66257 7.69649
1 19.0253 7.66802 7.64161
3 -18.7463 11.2871 7.97568
2 -15.1782 11.3486 7.85537
1 -11.3965 11.3672 7.91388
3 -7.60183 11.4573 7.77337
1 -3.78202 11.5539 8.0111
2 -0.083978 11.607 7.88441
2 3.91763 11.4264 7.74536
1 7.69677 11.5353 7.68554
2 11.5263 11.4382 7.69505
2 15.3252 11.3417 7.81176
3 18.9798 11.3418 7.82927
3 -15.1559 15.1273 8.01878
2 -11.4787 15.2797 7.98176
2 -7.53523 15.3513 8.05407
3 -3.70456 15.407 7.92246
1 0.109849 15.5359 7.87129
2 3.923 15.4938 7.94629
2 7.60012 15.3273 7.84005
3 11.4047 15.1415 7.66023
2 15.4561 15.3662 8.02664
2 -11.756 19.0332 8.11101
1 -7.57409 19.1762 8.07838
2 -3.71315 19.2352 7.98354
3 0.032319 19.1445 7.7783
1 3.88846 19.1393 7.86493
3 7.68104 19.1091 7.76272
3 11.3863 18.8606 7.73263
3 -0.0332202 22.8721 7.58677
3 -7.74125 -19.0632 11.4377
3 -3.70169 -19.1662 11.6266
1 -0.0155685 -19.0899 11.5226
1 3.96124 -19.3138 11.6384
2 7.57411 -18.8666 11.5952
3 -11.5968 -15.2662 11.7289
1 -7.78133 -15.3138 11.6187
3 -3.86988 -15.3732 11.5876
3 -0.103666 -15.214 11.5287
3 3.78487 -15.278 11.4837
3 7.52388 -15.1128 11.4774
3 11.3142 -15.2181 11.6086
3 -15.273 -11.5152 11.525
3 -11.4097 -11.4643 11.6102
1 -7.69128 -11.4603 11.5382
1 -3.78421 -11.362 11.6362
1 -0.0438777 -11.5173 11.594
1 3.76983 -11.5096 11.6076
1 7.72091 -11.4911 11.5937
2 11.4958 -11.3392 11.6688
2 15.3063 -11.5367 11.7445
3 -18.969 -7.66747 11.4724
3 -15.2077 -7.64591 11.4737
2 -11.3864 -7.50686 11.4659
2 -7.5861 -7.50894 11.5699
1 -3.77953 -7.47606 11.7197
1 -0.0099501 -7.619 11.7061
1 3.69881 -7.51764 11.5909
2 7.42065 -7.63387 11.7195
3 11.3684 -7.64536 11.549
3 15.1586 -7.40139 11.6383
3 18.722 -7.71573 11.5528
1 -18.8205 -4.00683 11.437
2 -15.2587 -3.82222 11.5902
2 -11.3252 -3.83876 11.5945
2 -7.52928 -3.86473 11.6263
1 -3.77309 -3.782 11.6758
3 -0.0737706 -3.79541 11.7379
1 3.83421 -3.7841 11.6528
2 7.55762 -3.68578 11.8064
3 11.337 -3.80653 11.7389
2 15.3489 -3.81777 11.5016
2 19.1024 -3.87308 11.4132
3 -19.0023 -0.263544 11.3989
1 -15.1817 0.0351482 11.5438
1 -11.51 0.178522 11.6694
2 -7.76808 0.0420353 11.5016
2 -3.91196 0.0941137 11.6732
2 -0.1036 0.0060433 11.7662
2 3.73573 -0.055016 11.8015
2 7.57311 -0.143127 11.8116
2 11.3954 -0.00934827 11.5961
2 15.3662 -0.0109472 11.6381
3 19.0512 -0.00373294 11.4317
3 -18.9075 3.84035 11.5302
2 -15.1807 3.85649 11.4928
1 -11.4359 3.91964 11.7541
2 -7.6372 3.90737 11.6448
3 -3.91083 4.02196 11.7895
2 -0.0492859 3.79192 11.7384
2 3.75354 3.8161 11.7568
1 7.61397 3.78067 11.6406
2 11.5331 3.86981 11.5681
2 15.2165 3.79947 11.5625
2 19.0929 4.02188 11.6483
3 -18.746 7.65116 11.4172
3 -15.1238 7.6128 11.5474
2 -11.356 7.76058 11.7688
3 -7.61712 7.61337 11.8602
2 -3.75779 7.71788 11.7475
2 0.0303151 7.55557 11.9359
1 3.73409 7.68034 11.8182
1 7.70011 7.64004 11.7629
2 11.4821 7.66759 11.6446
1 15.2827 7.62354 11.5291
3 18.9191 7.61513 11.4836
3 -15.2553 11.2999 11.7609
2 -11.4121 11.3275 11.6715
2 -7.56099 11.4909 11.6906
2 -3.6811 11.7442 11.6877
1 -0.0670617 11.496 11.7283
1 3.75416 11.5814 11.6642
1 7.62617 11.4736 11.7053
2 11.3804 11.4884 11.7192
3 15.311 11.3606 11.5953
2 -11.9594 15.2088 12.0789
1 -7.63912 15.3728 11.7049
1 -3.78689 15.3508 11.8218
2 0.10806 15.4392 11.8082
2 3.92595 15.2897 11.6806
3 7.642 15.2366 11.6639
2 11.7223 15.2505 11.9368
2 -7.88257 18.8779 11.9378
1 -3.96733 19.295 12.0343
1 0.166715 19.1948 11.8189
1 4.16409 19.2445 11.877
3 7.97279 18.788 11.5807
3 -7.73327 -15.173 15.2038
3 -3.89408 -15.4666 15.3908
3 -0.0834813 -15.2158 15.3573
3 3.77983 -15.1841 15.3109
3 7.52182 -15.2 15.2096
2 -11.4247 -11.6712 15.5587
2 -7.60784 -11.3935 15.4106
2 -3.94613 -11.5406 15.405
2 -0.138068 -11.5163 15.5958
1 3.74841 -11.5614 15.5083
3 7.63322 -11.5306 15.3516
3 11.4351 -11.4658 15.4067
3 -15.2721 -7.7335 15.1603
1 -11.4013 -7.72363 15.4825
1 -7.61977 -7.55722 15.4911
3 -3.95193 -7.75624 15.585
2 -0.109402 -7.67234 15.609
2 3.79323 -7.6776 15.5816
1 7.60442 -7.6102 15.5255
2 11.437 -7.71382 15.3206
3 15.2732 -7.5661 15.2209
3 -15.4126 -3.74749 15.2255
2 -11.5095 -3.8795 15.5429
2 -7.67348 -3.85752 15.5188
2 -3.83125 -3.8007 15.6416
1 -0.0532952 -3.86166 15.5107
3 3.89951 -3.90991 15.6625
3 7.6448 -3.93533 15.6478
2 11.6631 -3.75077 15.3537
1 15.2846 -3.79671 15.4995
2 -15.265 -0.0096448 15.4154
3 -11.5562 0.076163 15.4631
2 -7.68751 0.0409741 15.5416
2 -3.87295 -0.0309266 15.7182
2 -0.0328745 0.0772904 15.7545
3 3.80196 -0.0932105 15.8059
2 7.58145 -0.0107328 15.5724
1 11.4456 -0.0492218 15.4342
2 15.2447 0.0434799 15.3095
1 -15.4137 3.89389 15.3681
2 -11.6103 3.88766 15.4581
2 -7.77129 3.9206 15.5578
3 -3.93623 3.73743 15.6472
1 -0.0169724 3.77209 15.7274
2 3.97371 3.80306 15.7191
1 7.5849 3.7535 15.6616
2 11.4367 3.89845 15.4364
3 15.2585 3.87359 15.4325
1 -15.3652 7.87791 15.414
3 -11.5024 7.56266 15.3075
2 -7.653 7.68029 15.5149
2 -3.90772 7.77073 15.6031
2 -0.00326847 7.55267 15.6968
2 3.88112 7.69636 15.707
3 7.6932 7.678 15.6009
2 11.4789 7.84553 15.4101
2 15.4915 8.0187 15.3563
3 -11.4056 11.3636 15.5413
2 -7.64964 11.5177 15.5906
2 -3.64552 11.5126 15.5763
3 0.0771 11.5227 15.6177
3 3.81381 11.5899 15.434
3 7.71995 11.4704 15.5475
3 11.3905 11.341 15.3549
2 -7.71653 15.1894 15.5336
1 -3.86227 15.3032 15.654
2 0.00730276 15.2558 15.5761
2 3.90174 15.3597 15.5463
3 7.7116 15.1155 15.4422
2 -7.55985 -11.4309 19.1155
3 -3.89338 -11.5244 19.1449
3 0.0367253 -11.5397 19.1957
3 3.78891 -11.6182 19.0854
2 7.73294 -11.6201 19.0164
2 -11.4266 -7.66935 19.1062
2 -7.63889 -7.69778 19.2136
2 -3.79894 -7.77044 19.4715
1 -0.00889577 -7.84096 19.2561
1 3.84442 -7.89328 19.4338
3 7.65542 -7.817 19.2677
3 11.8345 -7.71224 19.0169
3 -11.6685 -4.02867 19.2228
2 -7.68433 -3.99989 19.3636
3 -3.84405 -3.93472 19.4188
2 0.0342542 -3.92952 19.4653
2 4.01732 -4.01536 19.5663
2 7.8759 -4.04504 19.4841
2 11.7291 -4.08317 19.3523
2 -11.4328 0.00249172 19.0378
2 -7.78912 -0.0287091 19.4253
1 -3.82009 -0.258245 19.5904
3 -0.105701 -0.0535458 19.4876
1 3.82086 -0.101081 19.7015
2 7.74955 -0.0938177 19.5817
1 11.5966 -0.0685938 19.3711
2 -11.5294 3.90289 19.2558
1 -7.80544 3.93928 19.2775
2 -3.97296 3.71254 19.3945
1 -0.0461868 3.72199 19.5326
2 3.88987 3.79484 19.6676
2 7.80616 3.95284 19.4439
1 11.4883 3.89732 19.3759
3 -11.4575 7.69532 19.0771
3 -7.65338 7.73087 19.2772
2 -3.91402 7.60404 19.4466
2 0.0055703 7.76075 19.5255
2 3.87557 7.79776 19.4388
3 7.82146 7.70658 19.2809
3 11.4277 7.75923 19.0502
2 -7.78213 11.4073 19.1767
1 -4.01152 11.7106 19.4931
1 0.0709523 11.5766 19.4976
3 3.83758 11.4453 19.2413
1 7.77962 11.4451 19.068
3 -0.0161266 -8.013 22.8071
2 -4.14208 -4.14723 23.3986
3 0.116226 -4.19421 23.2147
1 3.934 -4.13486 22.8126
3 -7.74545 0.0930688 22.7135
1 -4.20041 0.0115831 23.1292
3 -0.128865 -0.131418 23.4266
1 3.8054 -0.1198 23.0555
3 7.80508 0.10587 23.1106
3 -4.38129 3.75373 23.0768
3 -0.355765 3.80681 23.292
3 3.7681 3.86538 23.0625
1 -0.00190814 7.66208 23.1463
2 -5.65494 -6.17891 -22.8244
3 -1.71457 -6.03807 -22.9224
3 1.84521 -5.95714 -22.9458
3 5.7284 -5.99092 -22.6694
3 -5.54204 -2.18524 -23.0746
2 -1.87354 -2.19304 -23.0086
3 1.91087 -1.98514 -22.8927
2 5.89706 -1.74465 -22.8399
3 -5.9345 1.66854 -22.9109
3 -2.0518 1.86398 -23.1023
3 1.90589 2.00165 -23.0252
3 5.86819 1.83633 -22.8637
2 -6.04342 5.72885 -22.8561
3 -1.97385 5.9134 -22.9057
2 1.99252 5.88508 -22.9822
3 5.81012 5.89294 -22.6982
3 -5.72684 -13.7054 -18.8853
3 -1.8234 -13.6374 -19.0949
3 2.15196 -13.6211 -19.115
3 6.04187 -13.432 -18.9649
2 -9.52222 -9.94338 -19.2079
1 -5.69754 -10.0268 -19.4461
2 -1.75533 -9.91207 -19.2406
2 1.93142 -9.88492 -19.2985
1 5.76638 -10.0818 -19.3142
1 9.86186 -9.79405 -18.8302
3 -13.4975 -6.2283 -18.9744
2 -9.75649 -5.88755 -19.4037
1 -5.69968 -5.89686 -19.3797
2 -1.72684 -5.95821 -19.307
3 1.83165 -5.9544 -19.3
1 5.62016 -5.90112 -19.3215
2 9.64872 -5.78586 -19.0622