LAMMPS DATA FOR MEAM SIMULATION

   4321   atoms
      3   atom types

  -33.55   33.55   xlo xhi
  -33.55   33.55   ylo yhi
  -33.55   33.55   zlo zhi

 Atoms

     1   2     0.00000    -7.84889   -23.54666
     2   2    -3.92444    -3.92444   -23.54666
     3   2     0.00000    -3.92444   -23.54666
     4   2     3.92444    -3.92444   -23.54666
     5   3    -7.84889     0.00000   -23.54666
     6   2    -3.92444     0.00000   -23.54666
     7   3     0.00000     0.00000   -23.54666
     8   1     3.92444     0.00000   -23.54666
     9   3     7.84889     0.00000   -23.54666
    10   3    -3.92444     3.92444   -23.54666
    11   2     0.00000     3.92444   -23.54666
    12   1     3.92444     3.92444   -23.54666
    13   3     0.00000     7.84889   -23.54666
    14   2    -7.84889   -11.77333   -19.62221
    15   2    -3.92444   -11.77333   -19.62221
    16   3     0.00000   -11.77333   -19.62221
    17   2     3.92444   -11.77333   -19.62221
    18   2     7.84889   -11.77333   -19.62221
    19   2   -11.77333    -7.84889   -19.62221
    20   2    -7.84889    -7.84889   -19.62221
    21   2    -3.92444    -7.84889   -19.62221
    22   2     0.00000    -7.84889   -19.62221
    23   1     3.92444    -7.84889   -19.62221
    24   3     7.84889    -7.84889   -19.62221
    25   1    11.77333    -7.84889   -19.62221
    26   1   -11.77333    -3.92444   -19.62221
    27   3    -7.84889    -3.92444   -19.62221
    28   1    -3.92444    -3.92444   -19.62221
    29   2     0.00000    -3.92444   -19.62221
    30   1     3.92444    -3.92444   -19.62221
    31   3     7.84889    -3.92444   -19.62221
    32   3    11.77333    -3.92444   -19.62221
    33   2   -11.77333     0.00000   -19.62221
    34   2    -7.84889     0.00000   -19.62221
    35   3    -3.92444     0.00000   -19.62221
    36   2     0.00000     0.00000   -19.62221
    37   2     3.92444     0.00000   -19.62221
    38   1     7.84889     0.00000   -19.62221
    39   3    11.77333     0.00000   -19.62221
    40   3   -11.77333     3.92444   -19.62221
    41   2    -7.84889     3.92444   -19.62221
    42   2    -3.92444     3.92444   -19.62221
    43   1     0.00000     3.92444   -19.62221
    44   3     3.92444     3.92444   -19.62221
    45   3     7.84889     3.92444   -19.62221
    46   3    11.77333     3.92444   -19.62221
    47   2   -11.77333     7.84889   -19.62221
    48   2    -7.84889     7.84889   -19.62221
    49   1    -3.92444     7.84889   -19.62221
    50   1     0.00000     7.84889   -19.62221
    51   2     3.92444     7.84889   -19.62221
    52   1     7.84889     7.84889   -19.62221
    53   1    11.77333     7.84889   -19.62221
    54   2    -7.84889    11.77333   -19.62221
    55   3    -3.92444    11.77333   -19.62221
    56   2     0.00000    11.77333   -19.62221
    57   1     3.92444    11.77333   -19.62221
    58   3     7.84889    11.77333   -19.62221
    59   1    -7.84889   -15.69777   -15.69777
    60   2    -3.92444   -15.69777   -15.69777
    61   2     0.00000   -15.69777   -15.69777
    62   2     3.92444   -15.69777   -15.69777
    63   1     7.84889   -15.69777   -15.69777
    64   2   -11.77333   -11.77333   -15.69777
    65   2    -7.84889   -11.77333   -15.69777
    66   2    -3.92444   -11.77333   -15.69777
    67   3     0.00000   -11.77333   -15.69777
    68   2     3.92444   -11.77333   -15.69777
    69   2     7.84889   -11.77333   -15.69777
    70   1    11.77333   -11.77333   -15.69777
    71   2   -15.69777    -7.84889   -15.69777
    72   2   -11.77333    -7.84889   -15.69777
    73   3    -7.84889    -7.84889   -15.69777
    74   1    -3.92444    -7.84889   -15.69777
    75   1     0.00000    -7.84889   -15.69777
    76   2     3.92444    -7.84889   -15.69777
    77   2     7.84889    -7.84889   -15.69777
    78   2    11.77333    -7.84889   -15.69777
    79   3    15.69777    -7.84889   -15.69777
    80   1   -15.69777    -3.92444   -15.69777
    81   2   -11.77333    -3.92444   -15.69777
    82   2    -7.84889    -3.92444   -15.69777
    83   3    -3.92444    -3.92444   -15.69777
    84   1     0.00000    -3.92444   -15.69777
    85   2     3.92444    -3.92444   -15.69777
    86   1     7.84889    -3.92444   -15.69777
    87   2    11.77333    -3.92444   -15.69777
    88   1    15.69777    -3.92444   -15.69777
    89   2   -15.69777     0.00000   -15.69777
    90   3   -11.77333     0.00000   -15.69777
    91   3    -7.84889     0.00000   -15.69777
    92   2    -3.92444     0.00000   -15.69777
    93   3     0.00000     0.00000   -15.69777
    94   2     3.92444     0.00000   -15.69777
    95   1     7.84889     0.00000   -15.69777
    96   2    11.77333     0.00000   -15.69777
    97   3    15.69777     0.00000   -15.69777
    98   2   -15.69777     3.92444   -15.69777
    99   3   -11.77333     3.92444   -15.69777
   100   2    -7.84889     3.92444   -15.69777
   101   1    -3.92444     3.92444   -15.69777
   102   3     0.00000     3.92444   -15.69777
   103   2     3.92444     3.92444   -15.69777
   104   1     7.84889     3.92444   -15.69777
   105   2    11.77333     3.92444   -15.69777
   106   2    15.69777     3.92444   -15.69777
   107   1   -15.69777     7.84889   -15.69777
   108   3   -11.77333     7.84889   -15.69777
   109   2    -7.84889     7.84889   -15.69777
   110   2    -3.92444     7.84889   -15.69777
   111   1     0.00000     7.84889   -15.69777
   112   1     3.92444     7.84889   -15.69777
   113   3     7.84889     7.84889   -15.69777
   114   3    11.77333     7.84889   -15.69777
   115   2    15.69777     7.84889   -15.69777
   116   1   -11.77333    11.77333   -15.69777
   117   2    -7.84889    11.77333   -15.69777
   118   2    -3.92444    11.77333   -15.69777
   119   2     0.00000    11.77333   -15.69777
   120   1     3.92444    11.77333   -15.69777
   121   1     7.84889    11.77333   -15.69777
   122   2    11.77333    11.77333   -15.69777
   123   1    -7.84889    15.69777   -15.69777
   124   1    -3.92444    15.69777   -15.69777
   125   2     0.00000    15.69777   -15.69777
   126   2     3.92444    15.69777   -15.69777
   127   2     7.84889    15.69777   -15.69777
   128   2    -7.84889   -19.62221   -11.77333
   129   3    -3.92444   -19.62221   -11.77333
   130   2     0.00000   -19.62221   -11.77333
   131   3     3.92444   -19.62221   -11.77333
   132   1     7.84889   -19.62221   -11.77333
   133   1   -11.77333   -15.69777   -11.77333
   134   3    -7.84889   -15.69777   -11.77333
   135   1    -3.92444   -15.69777   -11.77333
   136   2     0.00000   -15.69777   -11.77333
   137   3     3.92444   -15.69777   -11.77333
   138   2     7.84889   -15.69777   -11.77333
   139   2    11.77333   -15.69777   -11.77333
   140   2   -15.69777   -11.77333   -11.77333
   141   2   -11.77333   -11.77333   -11.77333
   142   3    -7.84889   -11.77333   -11.77333
   143   3    -3.92444   -11.77333   -11.77333
   144   2     0.00000   -11.77333   -11.77333
   145   1     3.92444   -11.77333   -11.77333
   146   3     7.84889   -11.77333   -11.77333
   147   1    11.77333   -11.77333   -11.77333
   148   2    15.69777   -11.77333   -11.77333
   149   2   -19.62221    -7.84889   -11.77333
   150   1   -15.69777    -7.84889   -11.77333
   151   2   -11.77333    -7.84889   -11.77333
   152   2    -7.84889    -7.84889   -11.77333
   153   3    -3.92444    -7.84889   -11.77333
   154   3     0.00000    -7.84889   -11.77333
   155   1     3.92444    -7.84889   -11.77333
   156   1     7.84889    -7.84889   -11.77333
   157   1    11.77333    -7.84889   -11.77333
   158   2    15.69777    -7.84889   -11.77333
   159   3    19.62221    -7.84889   -11.77333
   160   1   -19.62221    -3.92444   -11.77333
   161   2   -15.69777    -3.92444   -11.77333
   162   2   -11.77333    -3.92444   -11.77333
   163   2    -7.84889    -3.92444   -11.77333
   164   2    -3.92444    -3.92444   -11.77333
   165   1     0.00000    -3.92444   -11.77333
   166   2     3.92444    -3.92444   -11.77333
   167   2     7.84889    -3.92444   -11.77333
   168   2    11.77333    -3.92444   -11.77333
   169   2    15.69777    -3.92444   -11.77333
   170   2    19.62221    -3.92444   -11.77333
   171   2   -19.62221     0.00000   -11.77333
   172   3   -15.69777     0.00000   -11.77333
   173   2   -11.77333     0.00000   -11.77333
   174   1    -7.84889     0.00000   -11.77333
   175   3    -3.92444     0.00000   -11.77333
   176   2     0.00000     0.00000   -11.77333
   177   2     3.92444     0.00000   -11.77333
   178   3     7.84889     0.00000   -11.77333
   179   1    11.77333     0.00000   -11.77333
   180   2    15.69777     0.00000   -11.77333
   181   2    19.62221     0.00000   -11.77333
   182   3   -19.62221     3.92444   -11.77333
   183   3   -15.69777     3.92444   -11.77333
   184   3   -11.77333     3.92444   -11.77333
   185   1    -7.84889     3.92444   -11.77333
   186   1    -3.92444     3.92444   -11.77333
   187   3     0.00000     3.92444   -11.77333
   188   3     3.92444     3.92444   -11.77333
   189   3     7.84889     3.92444   -11.77333
   190   2    11.77333     3.92444   -11.77333
   191   1    15.69777     3.92444   -11.77333
   192   1    19.62221     3.92444   -11.77333
   193   1   -19.62221     7.84889   -11.77333
   194   1   -15.69777     7.84889   -11.77333
   195   3   -11.77333     7.84889   -11.77333
   196   2    -7.84889     7.84889   -11.77333
   197   2    -3.92444     7.84889   -11.77333
   198   1     0.00000     7.84889   -11.77333
   199   1     3.92444     7.84889   -11.77333
   200   1     7.84889     7.84889   -11.77333
   201   3    11.77333     7.84889   -11.77333
   202   3    15.69777     7.84889   -11.77333
   203   1    19.62221     7.84889   -11.77333
   204   1   -15.69777    11.77333   -11.77333
   205   2   -11.77333    11.77333   -11.77333
   206   2    -7.84889    11.77333   -11.77333
   207   3    -3.92444    11.77333   -11.77333
   208   3     0.00000    11.77333   -11.77333
   209   3     3.92444    11.77333   -11.77333
   210   2     7.84889    11.77333   -11.77333
   211   3    11.77333    11.77333   -11.77333
   212   3    15.69777    11.77333   -11.77333
   213   1   -11.77333    15.69777   -11.77333
   214   1    -7.84889    15.69777   -11.77333
   215   2    -3.92444    15.69777   -11.77333
   216   3     0.00000    15.69777   -11.77333
   217   1     3.92444    15.69777   -11.77333
   218   1     7.84889    15.69777   -11.77333
   219   1    11.77333    15.69777   -11.77333
   220   3    -7.84889    19.62221   -11.77333
   221   2    -3.92444    19.62221   -11.77333
   222   2     0.00000    19.62221   -11.77333
   223   2     3.92444    19.62221   -11.77333
   224   2     7.84889    19.62221   -11.77333
   225   2     0.00000   -23.54666    -7.84889
   226   2   -11.77333   -19.62221    -7.84889
   227   2    -7.84889   -19.62221    -7.84889
   228   1    -3.92444   -19.62221    -7.84889
   229   2     0.00000   -19.62221    -7.84889
   230   3     3.92444   -19.62221    -7.84889
   231   2     7.84889   -19.62221    -7.84889
   232   1    11.77333   -19.62221    -7.84889
   233   1   -15.69777   -15.69777    -7.84889
   234   2   -11.77333   -15.69777    -7.84889
   235   3    -7.84889   -15.69777    -7.84889
   236   2    -3.92444   -15.69777    -7.84889
   237   1     0.00000   -15.69777    -7.84889
   238   1     3.92444   -15.69777    -7.84889
   239   2     7.84889   -15.69777    -7.84889
   240   2    11.77333   -15.69777    -7.84889
   241   3    15.69777   -15.69777    -7.84889
   242   3   -19.62221   -11.77333    -7.84889
   243   2   -15.69777   -11.77333    -7.84889
   244   2   -11.77333   -11.77333    -7.84889
   245   3    -7.84889   -11.77333    -7.84889
   246   3    -3.92444   -11.77333    -7.84889
   247   2     0.00000   -11.77333    -7.84889
   248   3     3.92444   -11.77333    -7.84889
   249   2     7.84889   -11.77333    -7.84889
   250   3    11.77333   -11.77333    -7.84889
   251   3    15.69777   -11.77333    -7.84889
   252   2    19.62221   -11.77333    -7.84889
   253   2   -19.62221    -7.84889    -7.84889
   254   2   -15.69777    -7.84889    -7.84889
   255   1   -11.77333    -7.84889    -7.84889
   256   2    -7.84889    -7.84889    -7.84889
   257   3    -3.92444    -7.84889    -7.84889
   258   2     0.00000    -7.84889    -7.84889
   259   3     3.92444    -7.84889    -7.84889
   260   2     7.84889    -7.84889    -7.84889
   261   2    11.77333    -7.84889    -7.84889
   262   1    15.69777    -7.84889    -7.84889
   263   1    19.62221    -7.84889    -7.84889
   264   2   -19.62221    -3.92444    -7.84889
   265   3   -15.69777    -3.92444    -7.84889
   266   2   -11.77333    -3.92444    -7.84889
   267   2    -7.84889    -3.92444    -7.84889
   268   3    -3.92444    -3.92444    -7.84889
   269   3     0.00000    -3.92444    -7.84889
   270   2     3.92444    -3.92444    -7.84889
   271   3     7.84889    -3.92444    -7.84889
   272   2    11.77333    -3.92444    -7.84889
   273   1    15.69777    -3.92444    -7.84889
   274   2    19.62221    -3.92444    -7.84889
   275   2   -23.54666     0.00000    -7.84889
   276   2   -19.62221     0.00000    -7.84889
   277   3   -15.69777     0.00000    -7.84889
   278   2   -11.77333     0.00000    -7.84889
   279   3    -7.84889     0.00000    -7.84889
   280   2    -3.92444     0.00000    -7.84889
   281   3     0.00000     0.00000    -7.84889
   282   3     3.92444     0.00000    -7.84889
   283   3     7.84889     0.00000    -7.84889
   284   1    11.77333     0.00000    -7.84889
   285   3    15.69777     0.00000    -7.84889
   286   1    19.62221     0.00000    -7.84889
   287   2    23.54666     0.00000    -7.84889
   288   3   -19.62221     3.92444    -7.84889
   289   3   -15.69777     3.92444    -7.84889
   290   1   -11.77333     3.92444    -7.84889
   291   1    -7.84889     3.92444    -7.84889
   292   3    -3.92444     3.92444    -7.84889
   293   3     0.00000     3.92444    -7.84889
   294   2     3.92444     3.92444    -7.84889
   295   3     7.84889     3.92444    -7.84889
   296   2    11.77333     3.92444    -7.84889
   297   2    15.69777     3.92444    -7.84889
   298   2    19.62221     3.92444    -7.84889
   299   2   -19.62221     7.84889    -7.84889
   300   2   -15.69777     7.84889    -7.84889
   301   3   -11.77333     7.84889    -7.84889
   302   1    -7.84889     7.84889    -7.84889
   303   3    -3.92444     7.84889    -7.84889
   304   3     0.00000     7.84889    -7.84889
   305   2     3.92444     7.84889    -7.84889
   306   1     7.84889     7.84889    -7.84889
   307   3    11.77333     7.84889    -7.84889
   308   3    15.69777     7.84889    -7.84889
   309   1    19.62221     7.84889    -7.84889
   310   1   -19.62221    11.77333    -7.84889
   311   1   -15.69777    11.77333    -7.84889
   312   2   -11.77333    11.77333    -7.84889
   313   2    -7.84889    11.77333    -7.84889
   314   3    -3.92444    11.77333    -7.84889
   315   3     0.00000    11.77333    -7.84889
   316   2     3.92444    11.77333    -7.84889
   317   3     7.84889    11.77333    -7.84889
   318   1    11.77333    11.77333    -7.84889
   319   2    15.69777    11.77333    -7.84889
   320   3    19.62221    11.77333    -7.84889
   321   2   -15.69777    15.69777    -7.84889
   322   1   -11.77333    15.69777    -7.84889
   323   1    -7.84889    15.69777    -7.84889
   324   2    -3.92444    15.69777    -7.84889
   325   3     0.00000    15.69777    -7.84889
   326   3     3.92444    15.69777    -7.84889
   327   3     7.84889    15.69777    -7.84889
   328   3    11.77333    15.69777    -7.84889
   329   2    15.69777    15.69777    -7.84889
   330   1   -11.77333    19.62221    -7.84889
   331   2    -7.84889    19.62221    -7.84889
   332   1    -3.92444    19.62221    -7.84889
   333   1     0.00000    19.62221    -7.84889
   334   3     3.92444    19.62221    -7.84889
   335   2     7.84889    19.62221    -7.84889
   336   2    11.77333    19.62221    -7.84889
   337   2     0.00000    23.54666    -7.84889
   338   3    -3.92444   -23.54666    -3.92444
   339   1     0.00000   -23.54666    -3.92444
   340   1     3.92444   -23.54666    -3.92444
   341   1   -11.77333   -19.62221    -3.92444
   342   2    -7.84889   -19.62221    -3.92444
   343   2    -3.92444   -19.62221    -3.92444
   344   3     0.00000   -19.62221    -3.92444
   345   1     3.92444   -19.62221    -3.92444
   346   2     7.84889   -19.62221    -3.92444
   347   2    11.77333   -19.62221    -3.92444
   348   2   -15.69777   -15.69777    -3.92444
   349   2   -11.77333   -15.69777    -3.92444
   350   2    -7.84889   -15.69777    -3.92444
   351   3    -3.92444   -15.69777    -3.92444
   352   2     0.00000   -15.69777    -3.92444
   353   3     3.92444   -15.69777    -3.92444
   354   3     7.84889   -15.69777    -3.92444
   355   2    11.77333   -15.69777    -3.92444
   356   2    15.69777   -15.69777    -3.92444
   357   1   -19.62221   -11.77333    -3.92444
   358   2   -15.69777   -11.77333    -3.92444
   359   1   -11.77333   -11.77333    -3.92444
   360   2    -7.84889   -11.77333    -3.92444
   361   2    -3.92444   -11.77333    -3.92444
   362   3     0.00000   -11.77333    -3.92444
   363   2     3.92444   -11.77333    -3.92444
   364   1     7.84889   -11.77333    -3.92444
   365   2    11.77333   -11.77333    -3.92444
   366   1    15.69777   -11.77333    -3.92444
   367   3    19.62221   -11.77333    -3.92444
   368   3   -19.62221    -7.84889    -3.92444
   369   2   -15.69777    -7.84889    -3.92444
   370   2   -11.77333    -7.84889    -3.92444
   371   3    -7.84889    -7.84889    -3.92444
   372   1    -3.92444    -7.84889    -3.92444
   373   1     0.00000    -7.84889    -3.92444
   374   2     3.92444    -7.84889    -3.92444
   375   3     7.84889    -7.84889    -3.92444
   376   2    11.77333    -7.84889    -3.92444
   377   2    15.69777    -7.84889    -3.92444
   378   1    19.62221    -7.84889    -3.92444
   379   2   -23.54666    -3.92444    -3.92444
   380   2   -19.62221    -3.92444    -3.92444
   381   2   -15.69777    -3.92444    -3.92444
   382   3   -11.77333    -3.92444    -3.92444
   383   2    -7.84889    -3.92444    -3.92444
   384   1    -3.92444    -3.92444    -3.92444
   385   2     0.00000    -3.92444    -3.92444
   386   1     3.92444    -3.92444    -3.92444
   387   3     7.84889    -3.92444    -3.92444
   388   1    11.77333    -3.92444    -3.92444
   389   1    15.69777    -3.92444    -3.92444
   390   2    19.62221    -3.92444    -3.92444
   391   1    23.54666    -3.92444    -3.92444
   392   3   -23.54666     0.00000    -3.92444
   393   2   -19.62221     0.00000    -3.92444
   394   3   -15.69777     0.00000    -3.92444
   395   3   -11.77333     0.00000    -3.92444
   396   3    -7.84889     0.00000    -3.92444
   397   3    -3.92444     0.00000    -3.92444
   398   3     0.00000     0.00000    -3.92444
   399   3     3.92444     0.00000    -3.92444
   400   3     7.84889     0.00000    -3.92444
   401   1    11.77333     0.00000    -3.92444
   402   2    15.69777     0.00000    -3.92444
   403   3    19.62221     0.00000    -3.92444
   404   3    23.54666     0.00000    -3.92444
   405   3   -23.54666     3.92444    -3.92444
   406   1   -19.62221     3.92444    -3.92444
   407   2   -15.69777     3.92444    -3.92444
   408   3   -11.77333     3.92444    -3.92444
   409   2    -7.84889     3.92444    -3.92444
   410   3    -3.92444     3.92444    -3.92444
   411   2     0.00000     3.92444    -3.92444
   412   3     3.92444     3.92444    -3.92444
   413   3     7.84889     3.92444    -3.92444
   414   1    11.77333     3.92444    -3.92444
   415   2    15.69777     3.92444    -3.92444
   416   2    19.62221     3.92444    -3.92444
   417   2    23.54666     3.92444    -3.92444
   418   2   -19.62221     7.84889    -3.92444
   419   2   -15.69777     7.84889    -3.92444
   420   3   -11.77333     7.84889    -3.92444
   421   3    -7.84889     7.84889    -3.92444
   422   3    -3.92444     7.84889    -3.92444
   423   3     0.00000     7.84889    -3.92444
   424   1     3.92444     7.84889    -3.92444
   425   2     7.84889     7.84889    -3.92444
   426   1    11.77333     7.84889    -3.92444
   427   2    15.69777     7.84889    -3.92444
   428   2    19.62221     7.84889    -3.92444
   429   1   -19.62221    11.77333    -3.92444
   430   1   -15.69777    11.77333    -3.92444
   431   1   -11.77333    11.77333    -3.92444
   432   3    -7.84889    11.77333    -3.92444
   433   1    -3.92444    11.77333    -3.92444
   434   1     0.00000    11.77333    -3.92444
   435   1     3.92444    11.77333    -3.92444
   436   3     7.84889    11.77333    -3.92444
   437   3    11.77333    11.77333    -3.92444
   438   2    15.69777    11.77333    -3.92444
   439   3    19.62221    11.77333    -3.92444
   440   1   -15.69777    15.69777    -3.92444
   441   1   -11.77333    15.69777    -3.92444
   442   2    -7.84889    15.69777    -3.92444
   443   3    -3.92444    15.69777    -3.92444
   444   2     0.00000    15.69777    -3.92444
   445   2     3.92444    15.69777    -3.92444
   446   2     7.84889    15.69777    -3.92444
   447   3    11.77333    15.69777    -3.92444
   448   3    15.69777    15.69777    -3.92444
   449   2   -11.77333    19.62221    -3.92444
   450   1    -7.84889    19.62221    -3.92444
   451   2    -3.92444    19.62221    -3.92444
   452   2     0.00000    19.62221    -3.92444
   453   1     3.92444    19.62221    -3.92444
   454   1     7.84889    19.62221    -3.92444
   455   2    11.77333    19.62221    -3.92444
   456   2    -3.92444    23.54666    -3.92444
   457   2     0.00000    23.54666    -3.92444
   458   1     3.92444    23.54666    -3.92444
   459   1    -7.84889   -23.54666     0.00000
   460   1    -3.92444   -23.54666     0.00000
   461   3     0.00000   -23.54666     0.00000
   462   2     3.92444   -23.54666     0.00000
   463   3     7.84889   -23.54666     0.00000
   464   2   -11.77333   -19.62221     0.00000
   465   3    -7.84889   -19.62221     0.00000
   466   2    -3.92444   -19.62221     0.00000
   467   1     0.00000   -19.62221     0.00000
   468   1     3.92444   -19.62221     0.00000
   469   3     7.84889   -19.62221     0.00000
   470   2    11.77333   -19.62221     0.00000
   471   3   -15.69777   -15.69777     0.00000
   472   2   -11.77333   -15.69777     0.00000
   473   1    -7.84889   -15.69777     0.00000
   474   2    -3.92444   -15.69777     0.00000
   475   2     0.00000   -15.69777     0.00000
   476   1     3.92444   -15.69777     0.00000
   477   2     7.84889   -15.69777     0.00000
   478   3    11.77333   -15.69777     0.00000
   479   1    15.69777   -15.69777     0.00000
   480   2   -19.62221   -11.77333     0.00000
   481   1   -15.69777   -11.77333     0.00000
   482   1   -11.77333   -11.77333     0.00000
   483   1    -7.84889   -11.77333     0.00000
   484   1    -3.92444   -11.77333     0.00000
   485   2     0.00000   -11.77333     0.00000
   486   2     3.92444   -11.77333     0.00000
   487   1     7.84889   -11.77333     0.00000
   488   1    11.77333   -11.77333     0.00000
   489   3    15.69777   -11.77333     0.00000
   490   1    19.62221   -11.77333     0.00000
   491   2   -23.54666    -7.84889     0.00000
   492   1   -19.62221    -7.84889     0.00000
   493   1   -15.69777    -7.84889     0.00000
   494   3   -11.77333    -7.84889     0.00000
   495   2    -7.84889    -7.84889     0.00000
   496   3    -3.92444    -7.84889     0.00000
   497   1     0.00000    -7.84889     0.00000
   498   3     3.92444    -7.84889     0.00000
   499   2     7.84889    -7.84889     0.00000
   500   2    11.77333    -7.84889     0.00000
   501   3    15.69777    -7.84889     0.00000
   502   1    19.62221    -7.84889     0.00000
   503   1    23.54666    -7.84889     0.00000
   504   3   -23.54666    -3.92444     0.00000
   505   3   -19.62221    -3.92444     0.00000
   506   2   -15.69777    -3.92444     0.00000
   507   3   -11.77333    -3.92444     0.00000
   508   2    -7.84889    -3.92444     0.00000
   509   3    -3.92444    -3.92444     0.00000
   510   2     0.00000    -3.92444     0.00000
   511   3     3.92444    -3.92444     0.00000
   512   1     7.84889    -3.92444     0.00000
   513   2    11.77333    -3.92444     0.00000
   514   3    15.69777    -3.92444     0.00000
   515   2    19.62221    -3.92444     0.00000
   516   3    23.54666    -3.92444     0.00000
   517   1   -23.54666     0.00000     0.00000
   518   1   -19.62221     0.00000     0.00000
   519   1   -15.69777     0.00000     0.00000
   520   2   -11.77333     0.00000     0.00000
   521   1    -7.84889     0.00000     0.00000
   522   2    -3.92444     0.00000     0.00000
   523   3     0.00000     0.00000     0.00000
   524   2     3.92444     0.00000     0.00000
   525   1     7.84889     0.00000     0.00000
   526   3    11.77333     0.00000     0.00000
   527   3    15.69777     0.00000     0.00000
   528   3    19.62221     0.00000     0.00000
   529   1    23.54666     0.00000     0.00000
   530   2   -23.54666     3.92444     0.00000
   531   2   -19.62221     3.92444     0.00000
   532   3   -15.69777     3.92444     0.00000
   533   1   -11.77333     3.92444     0.00000
   534   3    -7.84889     3.92444     0.00000
   535   1    -3.92444     3.92444     0.00000
   536   3     0.00000     3.92444     0.00000
   537   2     3.92444     3.92444     0.00000
   538   2     7.84889     3.92444     0.00000
   539   2    11.77333     3.92444     0.00000
   540   2    15.69777     3.92444     0.00000
   541   2    19.62221     3.92444     0.00000
   542   3    23.54666     3.92444     0.00000
   543   2   -23.54666     7.84889     0.00000
   544   1   -19.62221     7.84889     0.00000
   545   1   -15.69777     7.84889     0.00000
   546   3   -11.77333     7.84889     0.00000
   547   3    -7.84889     7.84889     0.00000
   548   1    -3.92444     7.84889     0.00000
   549   3     0.00000     7.84889     0.00000
   550   1     3.92444     7.84889     0.00000
   551   1     7.84889     7.84889     0.00000
   552   3    11.77333     7.84889     0.00000
   553   2    15.69777     7.84889     0.00000
   554   2    19.62221     7.84889     0.00000
   555   2    23.54666     7.84889     0.00000
   556   1   -19.62221    11.77333     0.00000
   557   2   -15.69777    11.77333     0.00000
   558   3   -11.77333    11.77333     0.00000
   559   1    -7.84889    11.77333     0.00000
   560   3    -3.92444    11.77333     0.00000
   561   2     0.00000    11.77333     0.00000
   562   2     3.92444    11.77333     0.00000
   563   3     7.84889    11.77333     0.00000
   564   3    11.77333    11.77333     0.00000
   565   1    15.69777    11.77333     0.00000
   566   2    19.62221    11.77333     0.00000
   567   3   -15.69777    15.69777     0.00000
   568   2   -11.77333    15.69777     0.00000
   569   1    -7.84889    15.69777     0.00000
   570   1    -3.92444    15.69777     0.00000
   571   3     0.00000    15.69777     0.00000
   572   1     3.92444    15.69777     0.00000
   573   3     7.84889    15.69777     0.00000
   574   2    11.77333    15.69777     0.00000
   575   2    15.69777    15.69777     0.00000
   576   1   -11.77333    19.62221     0.00000
   577   2    -7.84889    19.62221     0.00000
   578   2    -3.92444    19.62221     0.00000
   579   2     0.00000    19.62221     0.00000
   580   3     3.92444    19.62221     0.00000
   581   2     7.84889    19.62221     0.00000
   582   1    11.77333    19.62221     0.00000
   583   2    -7.84889    23.54666     0.00000
   584   3    -3.92444    23.54666     0.00000
   585   1     0.00000    23.54666     0.00000
   586   3     3.92444    23.54666     0.00000
   587   2     7.84889    23.54666     0.00000
   588   3    -3.92444   -23.54666     3.92444
   589   1     0.00000   -23.54666     3.92444
   590   3     3.92444   -23.54666     3.92444
   591   3   -11.77333   -19.62221     3.92444
   592   2    -7.84889   -19.62221     3.92444
   593   3    -3.92444   -19.62221     3.92444
   594   2     0.00000   -19.62221     3.92444
   595   1     3.92444   -19.62221     3.92444
   596   3     7.84889   -19.62221     3.92444
   597   2    11.77333   -19.62221     3.92444
   598   3   -15.69777   -15.69777     3.92444
   599   2   -11.77333   -15.69777     3.92444
   600   1    -7.84889   -15.69777     3.92444
   601   2    -3.92444   -15.69777     3.92444
   602   2     0.00000   -15.69777     3.92444
   603   3     3.92444   -15.69777     3.92444
   604   2     7.84889   -15.69777     3.92444
   605   2    11.77333   -15.69777     3.92444
   606   3    15.69777   -15.69777     3.92444
   607   2   -19.62221   -11.77333     3.92444
   608   3   -15.69777   -11.77333     3.92444
   609   3   -11.77333   -11.77333     3.92444
   610   2    -7.84889   -11.77333     3.92444
   611   3    -3.92444   -11.77333     3.92444
   612   2     0.00000   -11.77333     3.92444
   613   3     3.92444   -11.77333     3.92444
   614   3     7.84889   -11.77333     3.92444
   615   1    11.77333   -11.77333     3.92444
   616   3    15.69777   -11.77333     3.92444
   617   2    19.62221   -11.77333     3.92444
   618   1   -19.62221    -7.84889     3.92444
   619   3   -15.69777    -7.84889     3.92444
   620   1   -11.77333    -7.84889     3.92444
   621   2    -7.84889    -7.84889     3.92444
   622   2    -3.92444    -7.84889     3.92444
   623   1     0.00000    -7.84889     3.92444
   624   2     3.92444    -7.84889     3.92444
   625   3     7.84889    -7.84889     3.92444
   626   2    11.77333    -7.84889     3.92444
   627   2    15.69777    -7.84889     3.92444
   628   3    19.62221    -7.84889     3.92444
   629   2   -23.54666    -3.92444     3.92444
   630   2   -19.62221    -3.92444     3.92444
   631   2   -15.69777    -3.92444     3.92444
   632   2   -11.77333    -3.92444     3.92444
   633   1    -7.84889    -3.92444     3.92444
   634   2    -3.92444    -3.92444     3.92444