LAMMPS DATA FOR MEAM SIMULATION

   4321   atoms
      3   atom types

  -33.55   33.55   xlo xhi
  -33.55   33.55   ylo yhi
  -33.55   33.55   zlo zhi

 Atoms

     1   3     0.00000    -7.84889   -23.54666
     2   3    -3.92444    -3.92444   -23.54666
     3   3     0.00000    -3.92444   -23.54666
     4   3     3.92444    -3.92444   -23.54666
     5   2    -7.84889     0.00000   -23.54666
     6   1    -3.92444     0.00000   -23.54666
     7   1     0.00000     0.00000   -23.54666
     8   3     3.92444     0.00000   -23.54666
     9   1     7.84889     0.00000   -23.54666
    10   1    -3.92444     3.92444   -23.54666
    11   1     0.00000     3.92444   -23.54666
    12   3     3.92444     3.92444   -23.54666
    13   2     0.00000     7.84889   -23.54666
    14   2    -7.84889   -11.77333   -19.62221
    15   1    -3.92444   -11.77333   -19.62221
    16   2     0.00000   -11.77333   -19.62221
    17   3     3.92444   -11.77333   -19.62221
    18   2     7.84889   -11.77333   -19.62221
    19   1   -11.77333    -7.84889   -19.62221
    20   2    -7.84889    -7.84889   -19.62221
    21   3    -3.92444    -7.84889   -19.62221
    22   2     0.00000    -7.84889   -19.62221
    23   1     3.92444    -7.84889   -19.62221
    24   2     7.84889    -7.84889   -19.62221
    25   2    11.77333    -7.84889   -19.62221
    26   2   -11.77333    -3.92444   -19.62221
    27   2    -7.84889    -3.92444   -19.62221
    28   3    -3.92444    -3.92444   -19.62221
    29   2     0.00000    -3.92444   -19.62221
    30   2     3.92444    -3.92444   -19.62221
    31   3     7.84889    -3.92444   -19.62221
    32   1    11.77333    -3.92444   -19.62221
    33   3   -11.77333     0.00000   -19.62221
    34   1    -7.84889     0.00000   -19.62221
    35   2    -3.92444     0.00000   -19.62221
    36   3     0.00000     0.00000   -19.62221
    37   1     3.92444     0.00000   -19.62221
    38   1     7.84889     0.00000   -19.62221
    39   2    11.77333     0.00000   -19.62221
    40   1   -11.77333     3.92444   -19.62221
    41   1    -7.84889     3.92444   -19.62221
    42   3    -3.92444     3.92444   -19.62221
    43   2     0.00000     3.92444   -19.62221
    44   2     3.92444     3.92444   -19.62221
    45   2     7.84889     3.92444   -19.62221
    46   3    11.77333     3.92444   -19.62221
    47   1   -11.77333     7.84889   -19.62221
    48   3    -7.84889     7.84889   -19.62221
    49   2    -3.92444     7.84889   -19.62221
    50   3     0.00000     7.84889   -19.62221
    51   1     3.92444     7.84889   -19.62221
    52   3     7.84889     7.84889   -19.62221
    53   1    11.77333     7.84889   -19.62221
    54   1    -7.84889    11.77333   -19.62221
    55   1    -3.92444    11.77333   -19.62221
    56   1     0.00000    11.77333   -19.62221
    57   3     3.92444    11.77333   -19.62221
    58   2     7.84889    11.77333   -19.62221
    59   1    -7.84889   -15.69777   -15.69777
    60   1    -3.92444   -15.69777   -15.69777
    61   3     0.00000   -15.69777   -15.69777
    62   2     3.92444   -15.69777   -15.69777
    63   2     7.84889   -15.69777   -15.69777
    64   2   -11.77333   -11.77333   -15.69777
    65   3    -7.84889   -11.77333   -15.69777
    66   2    -3.92444   -11.77333   -15.69777
    67   1     0.00000   -11.77333   -15.69777
    68   2     3.92444   -11.77333   -15.69777
    69   1     7.84889   -11.77333   -15.69777
    70   2    11.77333   -11.77333   -15.69777
    71   1   -15.69777    -7.84889   -15.69777
    72   2   -11.77333    -7.84889   -15.69777
    73   1    -7.84889    -7.84889   -15.69777
    74   1    -3.92444    -7.84889   -15.69777
    75   2     0.00000    -7.84889   -15.69777
    76   3     3.92444    -7.84889   -15.69777
    77   1     7.84889    -7.84889   -15.69777
    78   1    11.77333    -7.84889   -15.69777
    79   2    15.69777    -7.84889   -15.69777
    80   1   -15.69777    -3.92444   -15.69777
    81   2   -11.77333    -3.92444   -15.69777
    82   2    -7.84889    -3.92444   -15.69777
    83   2    -3.92444    -3.92444   -15.69777
    84   3     0.00000    -3.92444   -15.69777
    85   1     3.92444    -3.92444   -15.69777
    86   2     7.84889    -3.92444   -15.69777
    87   2    11.77333    -3.92444   -15.69777
    88   2    15.69777    -3.92444   -15.69777
    89   2   -15.69777     0.00000   -15.69777
    90   3   -11.77333     0.00000   -15.69777
    91   1    -7.84889     0.00000   -15.69777
    92   2    -3.92444     0.00000   -15.69777
    93   3     0.00000     0.00000   -15.69777
    94   2     3.92444     0.00000   -15.69777
    95   2     7.84889     0.00000   -15.69777
    96   3    11.77333     0.00000   -15.69777
    97   2    15.69777     0.00000   -15.69777
    98   1   -15.69777     3.92444   -15.69777
    99   3   -11.77333     3.92444   -15.69777
   100   1    -7.84889     3.92444   -15.69777
   101   3    -3.92444     3.92444   -15.69777
   102   1     0.00000     3.92444   -15.69777
   103   3     3.92444     3.92444   -15.69777
   104   1     7.84889     3.92444   -15.69777
   105   2    11.77333     3.92444   -15.69777
   106   3    15.69777     3.92444   -15.69777
   107   2   -15.69777     7.84889   -15.69777
   108   2   -11.77333     7.84889   -15.69777
   109   2    -7.84889     7.84889   -15.69777
   110   1    -3.92444     7.84889   -15.69777
   111   2     0.00000     7.84889   -15.69777
   112   2     3.92444     7.84889   -15.69777
   113   3     7.84889     7.84889   -15.69777
   114   3    11.77333     7.84889   -15.69777
   115   1    15.69777     7.84889   -15.69777
   116   2   -11.77333    11.77333   -15.69777
   117   1    -7.84889    11.77333   -15.69777
   118   3    -3.92444    11.77333   -15.69777
   119   1     0.00000    11.77333   -15.69777
   120   3     3.92444    11.77333   -15.69777
   121   3     7.84889    11.77333   -15.69777
   122   1    11.77333    11.77333   -15.69777
   123   2    -7.84889    15.69777   -15.69777
   124   3    -3.92444    15.69777   -15.69777
   125   2     0.00000    15.69777   -15.69777
   126   2     3.92444    15.69777   -15.69777
   127   3     7.84889    15.69777   -15.69777
   128   3    -7.84889   -19.62221   -11.77333
   129   3    -3.92444   -19.62221   -11.77333
   130   2     0.00000   -19.62221   -11.77333
   131   1     3.92444   -19.62221   -11.77333
   132   1     7.84889   -19.62221   -11.77333
   133   3   -11.77333   -15.69777   -11.77333
   134   1    -7.84889   -15.69777   -11.77333
   135   1    -3.92444   -15.69777   -11.77333
   136   3     0.00000   -15.69777   -11.77333
   137   3     3.92444   -15.69777   -11.77333
   138   2     7.84889   -15.69777   -11.77333
   139   2    11.77333   -15.69777   -11.77333
   140   1   -15.69777   -11.77333   -11.77333
   141   3   -11.77333   -11.77333   -11.77333
   142   2    -7.84889   -11.77333   -11.77333
   143   3    -3.92444   -11.77333   -11.77333
   144   3     0.00000   -11.77333   -11.77333
   145   3     3.92444   -11.77333   -11.77333
   146   1     7.84889   -11.77333   -11.77333
   147   3    11.77333   -11.77333   -11.77333
   148   1    15.69777   -11.77333   -11.77333
   149   2   -19.62221    -7.84889   -11.77333
   150   2   -15.69777    -7.84889   -11.77333
   151   2   -11.77333    -7.84889   -11.77333
   152   2    -7.84889    -7.84889   -11.77333
   153   2    -3.92444    -7.84889   -11.77333
   154   2     0.00000    -7.84889   -11.77333
   155   1     3.92444    -7.84889   -11.77333
   156   3     7.84889    -7.84889   -11.77333
   157   2    11.77333    -7.84889   -11.77333
   158   2    15.69777    -7.84889   -11.77333
   159   3    19.62221    -7.84889   -11.77333
   160   1   -19.62221    -3.92444   -11.77333
   161   1   -15.69777    -3.92444   -11.77333
   162   1   -11.77333    -3.92444   -11.77333
   163   2    -7.84889    -3.92444   -11.77333
   164   2    -3.92444    -3.92444   -11.77333
   165   1     0.00000    -3.92444   -11.77333
   166   2     3.92444    -3.92444   -11.77333
   167   1     7.84889    -3.92444   -11.77333
   168   1    11.77333    -3.92444   -11.77333
   169   2    15.69777    -3.92444   -11.77333
   170   2    19.62221    -3.92444   -11.77333
   171   2   -19.62221     0.00000   -11.77333
   172   2   -15.69777     0.00000   -11.77333
   173   3   -11.77333     0.00000   -11.77333
   174   2    -7.84889     0.00000   -11.77333
   175   1    -3.92444     0.00000   -11.77333
   176   2     0.00000     0.00000   -11.77333
   177   2     3.92444     0.00000   -11.77333
   178   1     7.84889     0.00000   -11.77333
   179   2    11.77333     0.00000   -11.77333
   180   1    15.69777     0.00000   -11.77333
   181   2    19.62221     0.00000   -11.77333
   182   1   -19.62221     3.92444   -11.77333
   183   3   -15.69777     3.92444   -11.77333
   184   2   -11.77333     3.92444   -11.77333
   185   3    -7.84889     3.92444   -11.77333
   186   2    -3.92444     3.92444   -11.77333
   187   2     0.00000     3.92444   -11.77333
   188   1     3.92444     3.92444   -11.77333
   189   2     7.84889     3.92444   -11.77333
   190   2    11.77333     3.92444   -11.77333
   191   2    15.69777     3.92444   -11.77333
   192   3    19.62221     3.92444   -11.77333
   193   1   -19.62221     7.84889   -11.77333
   194   1   -15.69777     7.84889   -11.77333
   195   2   -11.77333     7.84889   -11.77333
   196   3    -7.84889     7.84889   -11.77333
   197   2    -3.92444     7.84889   -11.77333
   198   1     0.00000     7.84889   -11.77333
   199   1     3.92444     7.84889   -11.77333
   200   1     7.84889     7.84889   -11.77333
   201   1    11.77333     7.84889   -11.77333
   202   3    15.69777     7.84889   -11.77333
   203   2    19.62221     7.84889   -11.77333
   204   3   -15.69777    11.77333   -11.77333
   205   2   -11.77333    11.77333   -11.77333
   206   1    -7.84889    11.77333   -11.77333
   207   3    -3.92444    11.77333   -11.77333
   208   3     0.00000    11.77333   -11.77333
   209   1     3.92444    11.77333   -11.77333
   210   1     7.84889    11.77333   -11.77333
   211   1    11.77333    11.77333   -11.77333
   212   3    15.69777    11.77333   -11.77333
   213   1   -11.77333    15.69777   -11.77333
   214   2    -7.84889    15.69777   -11.77333
   215   2    -3.92444    15.69777   -11.77333
   216   3     0.00000    15.69777   -11.77333
   217   2     3.92444    15.69777   -11.77333
   218   1     7.84889    15.69777   -11.77333
   219   2    11.77333    15.69777   -11.77333
   220   2    -7.84889    19.62221   -11.77333
   221   1    -3.92444    19.62221   -11.77333
   222   2     0.00000    19.62221   -11.77333
   223   3     3.92444    19.62221   -11.77333
   224   2     7.84889    19.62221   -11.77333
   225   1     0.00000   -23.54666    -7.84889
   226   2   -11.77333   -19.62221    -7.84889
   227   3    -7.84889   -19.62221    -7.84889
   228   3    -3.92444   -19.62221    -7.84889
   229   3     0.00000   -19.62221    -7.84889
   230   2     3.92444   -19.62221    -7.84889
   231   2     7.84889   -19.62221    -7.84889
   232   3    11.77333   -19.62221    -7.84889
   233   3   -15.69777   -15.69777    -7.84889
   234   1   -11.77333   -15.69777    -7.84889
   235   3    -7.84889   -15.69777    -7.84889
   236   1    -3.92444   -15.69777    -7.84889
   237   1     0.00000   -15.69777    -7.84889
   238   1     3.92444   -15.69777    -7.84889
   239   2     7.84889   -15.69777    -7.84889
   240   2    11.77333   -15.69777    -7.84889
   241   1    15.69777   -15.69777    -7.84889
   242   3   -19.62221   -11.77333    -7.84889
   243   1   -15.69777   -11.77333    -7.84889
   244   2   -11.77333   -11.77333    -7.84889
   245   3    -7.84889   -11.77333    -7.84889
   246   1    -3.92444   -11.77333    -7.84889
   247   1     0.00000   -11.77333    -7.84889
   248   3     3.92444   -11.77333    -7.84889
   249   2     7.84889   -11.77333    -7.84889
   250   2    11.77333   -11.77333    -7.84889
   251   1    15.69777   -11.77333    -7.84889
   252   2    19.62221   -11.77333    -7.84889
   253   3   -19.62221    -7.84889    -7.84889
   254   1   -15.69777    -7.84889    -7.84889
   255   1   -11.77333    -7.84889    -7.84889
   256   1    -7.84889    -7.84889    -7.84889
   257   1    -3.92444    -7.84889    -7.84889
   258   3     0.00000    -7.84889    -7.84889
   259   1     3.92444    -7.84889    -7.84889
   260   3     7.84889    -7.84889    -7.84889
   261   3    11.77333    -7.84889    -7.84889
   262   1    15.69777    -7.84889    -7.84889
   263   1    19.62221    -7.84889    -7.84889
   264   1   -19.62221    -3.92444    -7.84889
   265   1   -15.69777    -3.92444    -7.84889
   266   2   -11.77333    -3.92444    -7.84889
   267   2    -7.84889    -3.92444    -7.84889
   268   3    -3.92444    -3.92444    -7.84889
   269   1     0.00000    -3.92444    -7.84889
   270   1     3.92444    -3.92444    -7.84889
   271   2     7.84889    -3.92444    -7.84889
   272   3    11.77333    -3.92444    -7.84889
   273   2    15.69777    -3.92444    -7.84889
   274   1    19.62221    -3.92444    -7.84889
   275   2   -23.54666     0.00000    -7.84889
   276   3   -19.62221     0.00000    -7.84889
   277   1   -15.69777     0.00000    -7.84889
   278   2   -11.77333     0.00000    -7.84889
   279   1    -7.84889     0.00000    -7.84889
   280   1    -3.92444     0.00000    -7.84889
   281   2     0.00000     0.00000    -7.84889
   282   2     3.92444     0.00000    -7.84889
   283   2     7.84889     0.00000    -7.84889
   284   1    11.77333     0.00000    -7.84889
   285   1    15.69777     0.00000    -7.84889
   286   1    19.62221     0.00000    -7.84889
   287   3    23.54666     0.00000    -7.84889
   288   1   -19.62221     3.92444    -7.84889
   289   2   -15.69777     3.92444    -7.84889
   290   2   -11.77333     3.92444    -7.84889
   291   2    -7.84889     3.92444    -7.84889
   292   1    -3.92444     3.92444    -7.84889
   293   1     0.00000     3.92444    -7.84889
   294   1     3.92444     3.92444    -7.84889
   295   3     7.84889     3.92444    -7.84889
   296   2    11.77333     3.92444    -7.84889
   297   1    15.69777     3.92444    -7.84889
   298   1    19.62221     3.92444    -7.84889
   299   3   -19.62221     7.84889    -7.84889
   300   2   -15.69777     7.84889    -7.84889
   301   1   -11.77333     7.84889    -7.84889
   302   2    -7.84889     7.84889    -7.84889
   303   1    -3.92444     7.84889    -7.84889
   304   2     0.00000     7.84889    -7.84889
   305   3     3.92444     7.84889    -7.84889
   306   1     7.84889     7.84889    -7.84889
   307   3    11.77333     7.84889    -7.84889
   308   3    15.69777     7.84889    -7.84889
   309   3    19.62221     7.84889    -7.84889
   310   1   -19.62221    11.77333    -7.84889
   311   3   -15.69777    11.77333    -7.84889
   312   1   -11.77333    11.77333    -7.84889
   313   2    -7.84889    11.77333    -7.84889
   314   3    -3.92444    11.77333    -7.84889
   315   1     0.00000    11.77333    -7.84889
   316   2     3.92444    11.77333    -7.84889
   317   2     7.84889    11.77333    -7.84889
   318   1    11.77333    11.77333    -7.84889
   319   1    15.69777    11.77333    -7.84889
   320   3    19.62221    11.77333    -7.84889
   321   1   -15.69777    15.69777    -7.84889
   322   1   -11.77333    15.69777    -7.84889
   323   1    -7.84889    15.69777    -7.84889
   324   2    -3.92444    15.69777    -7.84889
   325   3     0.00000    15.69777    -7.84889
   326   3     3.92444    15.69777    -7.84889
   327   3     7.84889    15.69777    -7.84889
   328   2    11.77333    15.69777    -7.84889
   329   2    15.69777    15.69777    -7.84889
   330   2   -11.77333    19.62221    -7.84889
   331   2    -7.84889    19.62221    -7.84889
   332   2    -3.92444    19.62221    -7.84889
   333   2     0.00000    19.62221    -7.84889
   334   2     3.92444    19.62221    -7.84889
   335   3     7.84889    19.62221    -7.84889
   336   2    11.77333    19.62221    -7.84889
   337   2     0.00000    23.54666    -7.84889
   338   1    -3.92444   -23.54666    -3.92444
   339   1     0.00000   -23.54666    -3.92444
   340   2     3.92444   -23.54666    -3.92444
   341   1   -11.77333   -19.62221    -3.92444
   342   2    -7.84889   -19.62221    -3.92444
   343   3    -3.92444   -19.62221    -3.92444
   344   1     0.00000   -19.62221    -3.92444
   345   3     3.92444   -19.62221    -3.92444
   346   2     7.84889   -19.62221    -3.92444
   347   3    11.77333   -19.62221    -3.92444
   348   2   -15.69777   -15.69777    -3.92444
   349   3   -11.77333   -15.69777    -3.92444
   350   2    -7.84889   -15.69777    -3.92444
   351   1    -3.92444   -15.69777    -3.92444
   352   3     0.00000   -15.69777    -3.92444
   353   2     3.92444   -15.69777    -3.92444
   354   2     7.84889   -15.69777    -3.92444
   355   1    11.77333   -15.69777    -3.92444
   356   2    15.69777   -15.69777    -3.92444
   357   2   -19.62221   -11.77333    -3.92444
   358   3   -15.69777   -11.77333    -3.92444
   359   3   -11.77333   -11.77333    -3.92444
   360   2    -7.84889   -11.77333    -3.92444
   361   3    -3.92444   -11.77333    -3.92444
   362   2     0.00000   -11.77333    -3.92444
   363   1     3.92444   -11.77333    -3.92444
   364   1     7.84889   -11.77333    -3.92444
   365   3    11.77333   -11.77333    -3.92444
   366   1    15.69777   -11.77333    -3.92444
   367   1    19.62221   -11.77333    -3.92444
   368   3   -19.62221    -7.84889    -3.92444
   369   3   -15.69777    -7.84889    -3.92444
   370   3   -11.77333    -7.84889    -3.92444
   371   3    -7.84889    -7.84889    -3.92444
   372   2    -3.92444    -7.84889    -3.92444
   373   1     0.00000    -7.84889    -3.92444
   374   2     3.92444    -7.84889    -3.92444
   375   2     7.84889    -7.84889    -3.92444
   376   2    11.77333    -7.84889    -3.92444
   377   2    15.69777    -7.84889    -3.92444
   378   3    19.62221    -7.84889    -3.92444
   379   2   -23.54666    -3.92444    -3.92444
   380   3   -19.62221    -3.92444    -3.92444
   381   2   -15.69777    -3.92444    -3.92444
   382   2   -11.77333    -3.92444    -3.92444
   383   1    -7.84889    -3.92444    -3.92444
   384   1    -3.92444    -3.92444    -3.92444
   385   2     0.00000    -3.92444    -3.92444
   386   3     3.92444    -3.92444    -3.92444
   387   2     7.84889    -3.92444    -3.92444
   388   3    11.77333    -3.92444    -3.92444
   389   3    15.69777    -3.92444    -3.92444
   390   3    19.62221    -3.92444    -3.92444
   391   2    23.54666    -3.92444    -3.92444
   392   2   -23.54666     0.00000    -3.92444
   393   3   -19.62221     0.00000    -3.92444
   394   1   -15.69777     0.00000    -3.92444
   395   1   -11.77333     0.00000    -3.92444
   396   2    -7.84889     0.00000    -3.92444
   397   2    -3.92444     0.00000    -3.92444
   398   1     0.00000     0.00000    -3.92444
   399   2     3.92444     0.00000    -3.92444
   400   2     7.84889     0.00000    -3.92444
   401   3    11.77333     0.00000    -3.92444
   402   2    15.69777     0.00000    -3.92444
   403   2    19.62221     0.00000    -3.92444
   404   1    23.54666     0.00000    -3.92444
   405   1   -23.54666     3.92444    -3.92444
   406   2   -19.62221     3.92444    -3.92444
   407   3   -15.69777     3.92444    -3.92444
   408   2   -11.77333     3.92444    -3.92444
   409   2    -7.84889     3.92444    -3.92444
   410   2    -3.92444     3.92444    -3.92444
   411   3     0.00000     3.92444    -3.92444
   412   1     3.92444     3.92444    -3.92444
   413   3     7.84889     3.92444    -3.92444
   414   3    11.77333     3.92444    -3.92444
   415   1    15.69777     3.92444    -3.92444
   416   1    19.62221     3.92444    -3.92444
   417   3    23.54666     3.92444    -3.92444
   418   2   -19.62221     7.84889    -3.92444
   419   2   -15.69777     7.84889    -3.92444
   420   3   -11.77333     7.84889    -3.92444
   421   3    -7.84889     7.84889    -3.92444
   422   2    -3.92444     7.84889    -3.92444
   423   3     0.00000     7.84889    -3.92444
   424   2     3.92444     7.84889    -3.92444
   425   2     7.84889     7.84889    -3.92444
   426   3    11.77333     7.84889    -3.92444
   427   3    15.69777     7.84889    -3.92444
   428   3    19.62221     7.84889    -3.92444
   429   2   -19.62221    11.77333    -3.92444
   430   1   -15.69777    11.77333    -3.92444
   431   2   -11.77333    11.77333    -3.92444
   432   2    -7.84889    11.77333    -3.92444
   433   2    -3.92444    11.77333    -3.92444
   434   3     0.00000    11.77333    -3.92444
   435   2     3.92444    11.77333    -3.92444
   436   2     7.84889    11.77333    -3.92444
   437   2    11.77333    11.77333    -3.92444
   438   2    15.69777    11.77333    -3.92444
   439   1    19.62221    11.77333    -3.92444
   440   2   -15.69777    15.69777    -3.92444
   441   2   -11.77333    15.69777    -3.92444
   442   2    -7.84889    15.69777    -3.92444
   443   2    -3.92444    15.69777    -3.92444
   444   1     0.00000    15.69777    -3.92444
   445   2     3.92444    15.69777    -3.92444
   446   1     7.84889    15.69777    -3.92444
   447   1    11.77333    15.69777    -3.92444
   448   2    15.69777    15.69777    -3.92444
   449   3   -11.77333    19.62221    -3.92444
   450   2    -7.84889    19.62221    -3.92444
   451   2    -3.92444    19.62221    -3.92444
   452   1     0.00000    19.62221    -3.92444
   453   2     3.92444    19.62221    -3.92444
   454   2     7.84889    19.62221    -3.92444
   455   2    11.77333    19.62221    -3.92444
   456   1    -3.92444    23.54666    -3.92444
   457   2     0.00000    23.54666    -3.92444
   458   1     3.92444    23.54666    -3.92444
   459   1    -7.84889   -23.54666     0.00000
   460   3    -3.92444   -23.54666     0.00000
   461   3     0.00000   -23.54666     0.00000
   462   2     3.92444   -23.54666     0.00000
   463   3     7.84889   -23.54666     0.00000
   464   3   -11.77333   -19.62221     0.00000
   465   2    -7.84889   -19.62221     0.00000
   466   1    -3.92444   -19.62221     0.00000
   467   2     0.00000   -19.62221     0.00000
   468   2     3.92444   -19.62221     0.00000
   469   3     7.84889   -19.62221     0.00000
   470   2    11.77333   -19.62221     0.00000
   471   2   -15.69777   -15.69777     0.00000
   472   1   -11.77333   -15.69777     0.00000
   473   1    -7.84889   -15.69777     0.00000
   474   1    -3.92444   -15.69777     0.00000
   475   3     0.00000   -15.69777     0.00000
   476   3     3.92444   -15.69777     0.00000
   477   3     7.84889   -15.69777     0.00000
   478   1    11.77333   -15.69777     0.00000
   479   2    15.69777   -15.69777     0.00000
   480   3   -19.62221   -11.77333     0.00000
   481   2   -15.69777   -11.77333     0.00000
   482   2   -11.77333   -11.77333     0.00000
   483   2    -7.84889   -11.77333     0.00000
   484   2    -3.92444   -11.77333     0.00000
   485   2     0.00000   -11.77333     0.00000
   486   1     3.92444   -11.77333     0.00000
   487   2     7.84889   -11.77333     0.00000
   488   1    11.77333   -11.77333     0.00000
   489   1    15.69777   -11.77333     0.00000
   490   2    19.62221   -11.77333     0.00000
   491   1   -23.54666    -7.84889     0.00000
   492   2   -19.62221    -7.84889     0.00000
   493   3   -15.69777    -7.84889     0.00000
   494   1   -11.77333    -7.84889     0.00000
   495   3    -7.84889    -7.84889     0.00000
   496   2    -3.92444    -7.84889     0.00000
   497   1     0.00000    -7.84889     0.00000
   498   1     3.92444    -7.84889     0.00000
   499   1     7.84889    -7.84889     0.00000
   500   1    11.77333    -7.84889     0.00000
   501   2    15.69777    -7.84889     0.00000
   502   3    19.62221    -7.84889     0.00000
   503   2    23.54666    -7.84889     0.00000
   504   1   -23.54666    -3.92444     0.00000
   505   2   -19.62221    -3.92444     0.00000
   506   3   -15.69777    -3.92444     0.00000
   507   2   -11.77333    -3.92444     0.00000
   508   1    -7.84889    -3.92444     0.00000
   509   2    -3.92444    -3.92444     0.00000
   510   3     0.00000    -3.92444     0.00000
   511   2     3.92444    -3.92444     0.00000
   512   2     7.84889    -3.92444     0.00000
   513   2    11.77333    -3.92444     0.00000
   514   2    15.69777    -3.92444     0.00000
   515   3    19.62221    -3.92444     0.00000
   516   2    23.54666    -3.92444     0.00000
   517   2   -23.54666     0.00000     0.00000
   518   1   -19.62221     0.00000     0.00000
   519   1   -15.69777     0.00000     0.00000
   520   1   -11.77333     0.00000     0.00000
   521   3    -7.84889     0.00000     0.00000
   522   1    -3.92444     0.00000     0.00000
   523   3     0.00000     0.00000     0.00000
   524   3     3.92444     0.00000     0.00000
   525   2     7.84889     0.00000     0.00000
   526   1    11.77333     0.00000     0.00000
   527   1    15.69777     0.00000     0.00000
   528   1    19.62221     0.00000     0.00000
   529   2    23.54666     0.00000     0.00000
   530   1   -23.54666     3.92444     0.00000
   531   3   -19.62221     3.92444     0.00000
   532   1   -15.69777     3.92444     0.00000
   533   2   -11.77333     3.92444     0.00000
   534   1    -7.84889     3.92444     0.00000
   535   2    -3.92444     3.92444     0.00000
   536   2     0.00000     3.92444     0.00000
   537   3     3.92444     3.92444     0.00000
   538   1     7.84889     3.92444     0.00000
   539   2    11.77333     3.92444     0.00000
   540   2    15.69777     3.92444     0.00000
   541   3    19.62221     3.92444     0.00000
   542   3    23.54666     3.92444     0.00000
   543   3   -23.54666     7.84889     0.00000
   544   3   -19.62221     7.84889     0.00000
   545   1   -15.69777     7.84889     0.00000
   546   3   -11.77333     7.84889     0.00000
   547   2    -7.84889     7.84889     0.00000
   548   2    -3.92444     7.84889     0.00000
   549   3     0.00000     7.84889     0.00000
   550   1     3.92444     7.84889     0.00000
   551   2     7.84889     7.84889     0.00000
   552   2    11.77333     7.84889     0.00000
   553   3    15.69777     7.84889     0.00000
   554   1    19.62221     7.84889     0.00000
   555   2    23.54666     7.84889     0.00000
   556   2   -19.62221    11.77333     0.00000
   557   3   -15.69777    11.77333     0.00000
   558   1   -11.77333    11.77333     0.00000
   559   3    -7.84889    11.77333     0.00000
   560   3    -3.92444    11.77333     0.00000
   561   1     0.00000    11.77333     0.00000
   562   1     3.92444    11.77333     0.00000
   563   1     7.84889    11.77333     0.00000
   564   1    11.77333    11.77333     0.00000
   565   2    15.69777    11.77333     0.00000
   566   2    19.62221    11.77333     0.00000
   567   2   -15.69777    15.69777     0.00000
   568   2   -11.77333    15.69777     0.00000
   569   1    -7.84889    15.69777     0.00000
   570   3    -3.92444    15.69777     0.00000
   571   2     0.00000    15.69777     0.00000
   572   3     3.92444    15.69777     0.00000
   573   1     7.84889    15.69777     0.00000
   574   1    11.77333    15.69777     0.00000
   575   2    15.69777    15.69777     0.00000
   576   1   -11.77333    19.62221     0.00000
   577   2    -7.84889    19.62221     0.00000
   578   3    -3.92444    19.62221     0.00000
   579   2     0.00000    19.62221     0.00000
   580   1     3.92444    19.62221     0.00000
   581   2     7.84889    19.62221     0.00000
   582   3    11.77333    19.62221     0.00000
   583   1    -7.84889    23.54666     0.00000
   584   1    -3.92444    23.54666     0.00000
   585   2     0.00000    23.54666     0.00000
   586   2     3.92444    23.54666     0.00000
   587   2     7.84889    23.54666     0.00000
   588   1    -3.92444   -23.54666     3.92444
   589   1     0.00000   -23.54666     3.92444
   590   3     3.92444   -23.54666     3.92444
   591   2   -11.77333   -19.62221     3.92444
   592   3    -7.84889   -19.62221     3.92444
   593   1    -3.92444   -19.62221     3.92444
   594   2     0.00000   -19.62221     3.92444
   595   2     3.92444   -19.62221     3.92444
   596   2     7.84889   -19.62221     3.92444
   597   1    11.77333   -19.62221     3.92444
   598   3   -15.69777   -15.69777     3.92444
   599   1   -11.77333   -15.69777     3.92444
   600   2    -7.84889   -15.69777     3.92444
   601   1    -3.92444   -15.69777     3.92444
   602   2     0.00000   -15.69777     3.92444
   603   2     3.92444   -15.69777     3.92444
   604   3     7.84889   -15.69777     3.92444
   605   1    11.77333   -15.69777     3.92444
   606   2    15.69777   -15.69777     3.92444
   607   3   -19.62221   -11.77333     3.92444
   608   3   -15.69777   -11.77333     3.92444
   609   2   -11.77333   -11.77333     3.92444
   610   2    -7.84889   -11.77333     3.92444
   611   3    -3.92444   -11.77333     3.92444
   612   3     0.00000   -11.77333     3.92444
   613   1     3.92444   -11.77333     3.92444
   614   2     7.84889   -11.77333     3.92444
   615   1    11.77333   -11.77333     3.92444
   616   3    15.69777   -11.77333     3.92444
   617   1    19.62221   -11.77333     3.92444
   618   2   -19.62221    -7.84889     3.92444
   619   3   -15.69777    -7.84889     3.92444
   620   3   -11.77333    -7.84889     3.92444
   621   2    -7.84889    -7.84889     3.92444
   622   1    -3.92444    -7.84889     3.92444
   623   2     0.00000    -7.84889     3.92444
   624   3     3.92444    -7.84889     3.92444
   625   2     7.84889    -7.84889     3.92444
   626   2    11.77333    -7.84889     3.92444
   627   1    15.69777    -7.84889     3.92444
   628   3    19.62221    -7.84889     3.92444
   629   2   -23.54666    -3.92444     3.92444
   630   2   -19.62221    -3.92444     3.92444
   631   1   -15.69777    -3.92444     3.92444
   632   2   -11.77333    -3.92444     3.92444
   633   2    -7.84889    -3.92444     3.92444
   634   2    -3.92444    -3.92444     3.92444