3899
 Atoms. Timestep: 4193
3 -3.7746 -3.73011 -22.6674
3 0.173201 -3.79981 -22.6127
3 -3.92932 0.360224 -22.5234
3 0.0342716 0.0247372 -22.6033
1 3.81193 -0.11416 -22.7005
3 -3.56884 3.98055 -22.4967
3 0.084507 3.87908 -22.8412
3 3.70316 3.83384 -22.7201
2 -7.73015 -11.5032 -19.0481
3 -3.75079 -11.4022 -18.9969
3 0.274641 -11.4431 -19.1934
3 3.64525 -11.3541 -18.9661
2 7.70706 -11.7403 -18.7892
2 -11.2312 -7.76869 -18.9113
3 -7.48436 -7.82408 -19.1582
2 -3.67799 -7.89395 -19.3645
3 0.147508 -7.66914 -19.0647
2 3.99791 -7.65444 -19.1528
2 7.73636 -7.74699 -18.9989
3 11.5828 -7.90445 -18.6523
3 -11.7287 -3.85384 -18.988
2 -7.66009 -4.09798 -19.2771
1 -3.86278 -3.79301 -19.1587
3 -0.0886936 -3.73802 -19.2426
2 3.85316 -3.94141 -19.1869
2 7.75102 -3.84802 -19.2436
3 11.447 -4.16929 -19.04
1 -11.6629 -0.0561116 -19.1557
3 -7.52035 0.0129613 -19.213
2 -4.00788 0.00611547 -19.1998
2 0.0244515 0.0650381 -19.1903
2 4.08287 0.11411 -19.2703
2 7.67897 -0.068704 -18.8829
2 11.5017 -0.0540455 -19.0982
1 -11.4878 4.10226 -19.1919
2 -7.63864 4.14847 -19.2778
2 -3.78388 4.1107 -19.2005
3 0.142326 3.82043 -19.012
2 3.9365 3.96784 -19.3862
2 7.63129 3.99893 -19.1585
3 11.6767 3.96014 -19.026
1 -11.5051 7.82374 -19.1033
2 -7.42166 7.81094 -19.2551
3 -3.60327 7.78832 -19.1803
2 -0.0518921 7.85492 -19.138
2 3.81372 7.67558 -19.211
3 11.3414 7.58221 -19.0586
2 -7.55213 11.3162 -19.1599
3 -3.83576 11.4203 -19.2411
3 3.98028 11.4231 -18.9016
2 7.91741 11.3082 -18.9636
3 -7.98037 -15.1079 -15.3457
1 -3.53027 -15.1293 -15.4835
3 0.0382723 -15.4571 -15.4344
2 3.8983 -15.2465 -15.1054
3 7.72581 -15.3067 -14.9375
1 -7.53858 -11.4609 -15.2942
2 -3.68278 -11.4119 -15.4189
3 -0.0824186 -11.4892 -15.4416
3 3.82523 -11.5518 -15.3258
3 7.66307 -11.528 -15.2901
3 11.4314 -11.7652 -14.9843
1 -15.2129 -7.75801 -15.1895
1 -11.3348 -7.57495 -15.2822
3 -7.74427 -7.84422 -15.2681
2 -3.72817 -7.64597 -15.4999
1 0.0493247 -7.65032 -15.3899
2 3.93491 -7.72265 -15.2104
3 7.61012 -7.7282 -15.3942
3 11.5839 -7.8689 -15.3886
3 15.2511 -7.93578 -15.0446
3 -15.2105 -3.7824 -15.3063
2 -11.5082 -3.81317 -15.3105
3 -7.45796 -3.84556 -15.4579
2 -3.67786 -3.81229 -15.4161
3 -0.134566 -3.91857 -15.3806
2 3.99353 -3.83863 -15.4321
1 7.87554 -3.78234 -15.2856
1 11.5168 -3.88897 -15.2875
3 15.3796 -3.98527 -15.13
1 -15.2431 -0.0355985 -15.3213
3 -11.4484 0.0900269 -15.3732
1 -7.62355 0.21084 -15.3306
2 -3.9312 0.24382 -15.5378
1 0.0944927 0.0481463 -15.5538
2 3.89462 0.0254307 -15.4531
1 7.80392 -0.0229863 -15.4133
3 11.5292 -0.117329 -15.3016
3 15.3348 -0.149615 -14.9552
3 -15.2404 3.65171 -15.3469
2 -11.5818 4.09743 -15.4156
2 -7.72085 3.97782 -15.5671
3 -3.89032 4.03704 -15.3842
2 -0.131096 3.93226 -15.3993
2 3.87519 3.95637 -15.5091
2 7.75943 3.86369 -15.3578
1 11.4621 3.84155 -15.4299
2 15.4008 3.77919 -15.147
3 -15.2272 7.7381 -15.2339
2 -11.4675 7.82229 -15.3696
2 -7.70996 7.78391 -15.3848
3 -3.89627 7.64951 -15.4841
2 -0.0204166 7.77816 -15.4234
1 3.63018 7.82403 -15.3075
1 7.57466 7.66328 -15.3521
1 11.5651 7.71287 -15.3374
2 -11.4549 11.4088 -15.3997
2 -7.69916 11.6449 -15.4652
3 -3.9195 11.5009 -15.3968
2 -0.167464 11.5142 -15.5623
1 3.72591 11.479 -15.5005
1 7.79876 11.4076 -15.3981
2 11.3849 11.2499 -15.0033
3 -3.89839 15.0199 -15.7271
3 -0.161419 15.3485 -15.5013
3 3.83078 15.2604 -15.4431
3 7.65918 15.078 -15.199
3 -7.96064 -18.2105 -11.6052
1 -4.03075 -18.9069 -11.8335
3 0.0207383 -19.4361 -11.8769
1 4.05741 -19.3734 -11.6311
2 -11.5572 -15.3934 -11.375
2 -7.82096 -15.5234 -11.5929
2 -3.61029 -15.2725 -11.65
2 -0.0402699 -15.6074 -11.5702
2 3.75229 -15.4181 -11.4943
2 7.71219 -15.3907 -11.3578
3 11.2811 -15.3735 -11.322
3 -15.0881 -11.3107 -11.5485
2 -11.5179 -11.4046 -11.4335
2 -7.53921 -11.5347 -11.5919
1 -3.85311 -11.5483 -11.7121
2 0.00678327 -11.6385 -11.4684
2 3.88981 -11.5862 -11.5035
2 7.69519 -11.6636 -11.3422
3 11.4745 -11.7422 -11.4114
2 15.1196 -11.7778 -11.3333
3 -18.8393 -7.57568 -11.4219
3 -15.1553 -7.71063 -11.591
1 -11.3017 -7.57057 -11.5367
2 -7.61159 -7.73756 -11.7337
3 -3.82987 -7.53903 -11.6576
2 0.00180145 -7.73 -11.7289
1 3.7709 -7.65724 -11.5466
1 7.71913 -7.82068 -11.4785
2 11.5083 -7.91406 -11.5027
1 15.3477 -7.90448 -11.4959
3 18.8393 -8.28501 -11.359
3 -18.9176 -3.69588 -11.6276
2 -15.2409 -3.75962 -11.5264
3 -11.6442 -3.84033 -11.6125
1 -7.73556 -3.74862 -11.6937
2 -3.82548 -3.82475 -11.6212
2 -0.0783697 -3.82909 -11.5044
1 3.76779 -3.83397 -11.6511
1 7.79082 -3.95551 -11.3652
2 11.4826 -4.13057 -11.3955
1 15.2082 -4.06549 -11.3816
3 19.0815 -3.96147 -11.1883
3 -19.0133 0.0475947 -11.6455
3 -15.2264 -0.0187878 -11.5817
1 -11.5185 0.0322954 -11.6146
2 -7.67079 0.134408 -11.6894
2 -4.0074 0.231955 -11.588
1 -0.251806 0.158429 -11.5238
1 3.90087 0.0301635 -11.7079
1 7.61787 -0.0436179 -11.4438
1 11.5656 -0.0294572 -11.378
1 15.3013 -0.160146 -11.3071
3 19.1532 0.00029444 -11.2979
3 -18.7001 3.88739 -11.8799
1 -15.2916 3.82274 -11.7773
2 -11.4792 3.73985 -11.6627
2 -7.69625 3.75533 -11.6589
3 -3.8583 3.94247 -11.5159
2 -0.225441 4.15252 -11.6684
2 3.69886 3.90484 -11.596
1 7.62454 3.91613 -11.6655
2 11.4503 4.02604 -11.6959
3 15.3957 3.6732 -11.3457
2 18.9727 3.5349 -11.1896
2 -15.367 7.55385 -11.6795
3 -11.593 7.66249 -11.7169
1 -7.69388 7.76661 -11.6318
1 -3.97324 7.86766 -11.4735
1 -0.117333 7.81404 -11.5958
2 3.60172 7.75793 -11.6481
2 7.73805 7.75864 -11.4692
2 11.5921 7.60608 -11.4281
2 15.7893 7.72927 -11.8647
3 18.2932 7.84549 -11.6539
1 -15.3235 11.3904 -11.8163
1 -11.6851 11.5847 -11.5522
1 -7.72439 11.6123 -11.6035
2 -4.03345 11.5939 -11.7193
1 -0.0951995 11.5872 -11.5992
1 3.61197 11.5269 -11.4877
1 7.69489 11.5357 -11.5043
2 11.491 11.4342 -11.4888
2 15.1987 11.9574 -11.6447
2 -11.6703 15.4636 -11.5274
2 -7.85985 15.4946 -11.5957
2 -4.03034 15.5149 -11.8223
1 -0.187605 15.4133 -11.8351
1 3.85697 15.6179 -11.7079
2 7.41745 15.4558 -11.5956
3 -4.17461 18.9686 -11.7994
3 -0.145008 18.9387 -11.8722
3 3.67472 18.7845 -11.6944
1 -7.80738 -18.9837 -7.8622
3 -4.2951 -19.0294 -8.11028
1 -0.112319 -19.3409 -7.68289
2 3.84612 -19.1862 -7.74579
3 7.68082 -19.1984 -7.74436
2 -15.2698 -15.2138 -7.68476
2 -11.3487 -15.175 -7.72339
2 -7.69606 -15.2827 -7.68053
2 -3.7907 -15.5836 -7.85343
2 0.0751331 -15.7096 -7.61866
2 3.91563 -15.6186 -7.63606
3 7.5752 -15.4874 -7.66564
3 11.468 -15.5425 -7.59398
3 15.0243 -15.441 -7.45992
3 -18.5862 -11.2243 -7.57766
2 -15.1743 -11.4872 -7.58411
2 -11.4878 -11.5364 -7.59625
2 -7.5088 -11.705 -7.63812
2 -3.74508 -11.616 -7.64003
1 -0.00565492 -11.6035 -7.74083
1 3.71706 -11.6749 -7.71626
2 7.71085 -11.609 -7.72988
2 11.3631 -11.6629 -7.52179
3 15.0878 -11.7635 -7.68069
3 18.7852 -11.818 -7.3737
3 -18.9094 -7.60499 -7.67497
2 -15.1686 -7.61742 -7.81588
2 -11.5179 -7.65896 -7.76076
2 -7.55813 -7.63057 -7.62581
2 -3.77954 -7.73718 -7.55961
1 0.0614743 -7.7576 -7.55303
1 3.72971 -7.64349 -7.56081
3 7.68463 -7.73573 -7.59104
2 11.5073 -7.88811 -7.50226
3 15.2015 -8.04789 -7.63924
2 19.0775 -8.00268 -7.79118
3 -19.1215 -3.67329 -7.73879
2 -15.3115 -3.81497 -7.82665
2 -11.4525 -3.76837 -7.72575
1 -7.90051 -3.90625 -7.66934
1 -3.9371 -3.88203 -7.8234
2 -0.0925815 -3.78118 -7.53294
1 3.72453 -3.7338 -7.67303
2 7.63151 -3.83866 -7.72224
1 11.6281 -3.96399 -7.5001
2 15.5122 -4.0383 -7.64167
2 19.0969 -4.09641 -7.58367
3 -19.1505 0.0511395 -7.74376
1 -15.4112 0.052823 -7.76204
2 -11.7301 -0.212469 -7.6633
1 -7.74139 0.0489376 -7.73305
2 -3.81039 0.284635 -7.60476
1 0.0218892 0.282403 -7.69723
1 4.01766 0.147474 -7.73697
1 7.75106 -0.094405 -7.77216
1 11.5391 -0.0871284 -7.65212
1 15.363 -0.0807833 -7.54386
3 19.1223 -0.199409 -7.58709
3 -19.1404 3.87748 -7.73846
1 -15.4049 3.81826 -7.82646
2 -11.5954 3.70466 -7.79074
1 -7.57225 3.91433 -7.77608
1 -3.91925 3.99872 -7.74509
2 -0.00980116 4.06398 -7.80797
1 3.77053 4.05833 -7.7132
2 7.63184 3.75057 -7.88484
2 11.4148 3.75311 -7.70257
3 15.2133 3.69418 -7.55569
2 19.0327 3.63813 -7.52684
1 -19.1124 7.87076 -7.83677
2 -15.362 7.66651 -7.7642
2 -11.4871 7.79232 -7.53922
1 -7.75097 7.77613 -7.61094
2 -4.06176 7.71204 -7.72831
1 -0.0838068 7.8012 -7.76928
1 3.71869 7.73104 -7.66436
2 7.6059 7.77905 -7.75841
1 11.3668 7.82597 -7.69346
2 15.374 7.58707 -7.70208
3 19.1073 7.64044 -7.51341
3 -18.8445 11.6489 -7.92483
3 -15.2683 11.6235 -7.60076
2 -11.6714 11.6441 -7.8281
2 -7.82556 11.8631 -7.80062
2 -4.10681 11.5905 -7.67104
2 -0.274658 11.6589 -7.93426
1 3.65114 11.7446 -7.7488
2 7.68904 11.6355 -7.63679
2 11.6054 11.4592 -7.72943
3 15.2707 11.4171 -7.68738
1 18.8319 11.3261 -7.85868
3 -15.1412 15.423 -7.79329
2 -7.88013 15.5159 -7.7499
1 -3.96878 15.6325 -7.77563
2 -0.126046 15.6017 -7.73463
1 3.68981 15.5795 -7.82419
1 7.6607 15.5476 -7.8721
3 11.4149 15.2059 -7.77009
3 15.1012 15.1333 -7.74968
3 -7.93139 19.1325 -7.82289
1 -4.1106 19.3746 -7.85067
1 -0.0732298 19.2302 -7.84474
2 3.47631 19.3228 -7.89523
1 7.84365 19.2015 -7.93236
2 -0.293692 22.6203 -8.12938
3 -4.07596 -22.0661 -4.30402
3 0.148801 -22.8753 -3.46486
3 -7.79702 -19.2136 -4.17117
2 -4.04555 -19.552 -4.14702
2 0.137167 -19.6023 -3.59317
2 3.94658 -19.4325 -3.69491
3 7.77907 -19.3207 -3.90849
1 11.5169 -19.2586 -3.92656
2 -15.1356 -15.4025 -3.93615
1 -11.3741 -15.3821 -3.89215
2 -7.72759 -15.4364 -4.06862
2 -3.73708 -15.7653 -3.7954
1 0.0946263 -15.7334 -3.80066
1 4.10788 -15.6705 -3.82773
1 7.69541 -15.4778 -3.65554
3 11.3619 -15.5876 -3.89609
1 15.1342 -15.58 -3.75284
2 -19.154 -11.4988 -4.00752
1 -15.351 -11.659 -3.79079
1 -11.4202 -11.4815 -3.9087
1 -7.43003 -11.7469 -3.81769
1 -3.78472 -11.6827 -3.77602
3 0.051751 -11.7102 -3.70796
1 3.89772 -11.565 -3.85821
1 7.55724 -11.7626 -3.85405
2 11.2608 -11.7564 -3.93123
2 15.2724 -11.7515 -3.93292
2 -18.7762 -7.58641 -3.93794
2 -15.3304 -7.63029 -3.83343
2 -11.4848 -7.79908 -3.7772
1 -7.62337 -7.55025 -3.76923
2 -3.72603 -7.82203 -3.68326
1 0.0209201 -7.93066 -3.75553
2 3.71472 -7.67526 -3.78327
1 7.57325 -7.82089 -3.73786
2 11.6665 -7.86219 -3.79675
3 15.1562 -7.78439 -3.77658
3 18.9289 -7.82817 -3.85822
3 -22.4622 -3.72908 -3.88201
3 -19.0967 -3.78105 -3.89277
1 -15.3429 -3.6931 -4.02101
1 -11.4481 -3.90128 -3.83427
1 -7.66667 -3.82987 -3.77772
1 -3.7502 -3.68044 -3.81559
2 -0.0621256 -3.94074 -3.88455
1 3.91319 -3.81879 -3.73896
1 7.46509 -3.92109 -3.69945
1 11.4164 -3.97538 -3.69148
1 15.2109 -3.94674 -3.76614
3 18.9374 -4.05573 -3.83121
3 22.4423 -3.94781 -3.83741
1 -22.753 0.324688 -3.85955
3 -19.1815 0.0150698 -3.89823
2 -15.3442 -0.00209361 -3.77334
1 -11.6109 0.157521 -3.82307
1 -7.70736 0.112065 -3.88314
1 -3.81404 0.0587055 -3.79574
1 -0.0077171 0.0719631 -3.91598
2 3.90844 -0.0171839 -3.82066
2 7.68635 0.0339742 -3.73969
2 11.3971 -0.146622 -3.76061
2 15.3973 -0.224106 -3.81836
3 18.9843 -0.304922 -3.77901
3 22.7786 -0.355411 -3.98977
2 -19.1214 3.9108 -3.93971
1 -15.4983 3.79034 -3.76821
2 -11.6376 3.86838 -3.7065
2 -7.71964 3.89875 -3.90156
1 -3.94097 3.95645 -3.75205
2 0.0474431 4.19085 -4.02455
1 3.64383 3.89056 -3.82746
2 7.69649 3.86585 -3.89948
2 11.4801 3.83541 -3.90031
2 15.2421 3.69884 -3.80065
2 19.1154 3.56649 -3.87297
3 22.5565 3.43156 -3.79478
1 -19.0623 7.65973 -3.96597
1 -15.4891 7.691 -3.90604
2 -11.6944 7.85529 -3.88452
2 -7.62326 7.88099 -3.86235
2 -3.90553 8.0452 -3.93517
2 -0.169756 7.97563 -3.87002
2 3.89237 7.91752 -3.94984
2 7.62605 7.74246 -3.74331
2 11.3387 7.66258 -3.88646
2 15.3559 7.59599 -3.88189
1 19.0294 7.47966 -3.92439
3 -19.165 11.5103 -3.91099
3 -15.3236 11.5909 -3.86366
2 -11.7157 11.5348 -3.79748
2 -7.89741 11.648 -3.95268
1 -3.83572 11.9207 -3.72358
3 -0.0872593 11.7179 -3.88038
2 3.82878 11.7171 -4.06537
2 7.70868 11.6948 -3.95424
2 11.3549 11.5774 -3.89414
2 15.2822 11.6978 -4.00825
2 19.001 11.3472 -3.8364
2 -15.6144 15.5657 -4.04386
3 -11.6934 15.455 -3.86895
3 -7.85101 15.3567 -3.91829
2 -3.85782 15.4563 -3.87668
2 -0.262441 15.6814 -4.0467
1 3.74851 15.5842 -3.80142
1 7.75024 15.6098 -4.00075
3 11.3648 15.2861 -3.88176
1 15.3165 15.2049 -3.90955
2 -11.5289 19.2217 -3.93834
2 -7.95764 19.1219 -3.94531
1 -4.05307 19.5533 -3.8696
2 -0.192125 19.3907 -4.00126
2 3.71272 19.261 -3.80386
3 7.76365 19.1531 -3.96101
1 -3.87047 22.5954 -3.7773
1 -0.389615 22.7827 -3.90213
3 3.65502 22.6129 -3.75991
3 -3.42959 -22.9339 -0.0777759
3 0.317762 -22.8277 0.275866
3 -11.2959 -18.9826 -0.0796138
2 -7.53576 -19.2108 -0.196219
3 -3.61983 -19.2671 -0.106053
3 0.1222 -19.3896 0.170539
2 3.99871 -19.2747 0.157429
2 8.79635 -20.4838 0.0083032
1 11.4486 -19.3477 -0.0899079
3 -15.0429 -15.3555 -0.08164
2 -11.2873 -15.4257 -0.157691
3 -7.43482 -15.5669 -0.100739
2 -3.63149 -15.6036 0.0860558
2 0.0497976 -15.4644 0.0790912
3 3.69646 -15.6091 0.0856222
3 7.74534 -15.7252 0.172096
2 11.5072 -15.6599 0.0356544
2 15.1299 -15.6409 0.0723842
1 -19.0147 -11.6753 -0.0493764
1 -15.2369 -11.5638 0.0866618
2 -11.4294 -11.6807 -0.0981443
1 -7.66565 -11.6728 -0.180756
2 -3.67839 -11.6922 0.0885318
3 0.0842202 -11.7198 0.183564
1 4.03011 -11.761 -0.0218886
2 7.6875 -11.6914 -0.0293985
3 11.5243 -11.7033 0.163366
2 15.2039 -11.568 -0.0696839
2 -22.1632 -8.16221 -0.0902768
3 -19.3681 -7.8273 -0.033872
1 -15.4536 -7.77663 0.0521762
1 -11.5383 -7.64164 0.00493704
2 -7.62511 -7.74865 -0.0643453
2 -3.78471 -7.88769 -0.00446282
1 -0.0348162 -7.83343 0.0575132
2 3.78792 -7.7066 0.0658138
2 7.70874 -7.88398 0.029044
1 11.3827 -7.89743 0.086112
2 15.2725 -7.95815 0.0475868
2 18.8686 -7.83707 0.00140128
2 -19.3177 -4.08366 -0.118282
2 -15.3374 -3.94844 0.0541568
1 -11.5509 -3.73857 0.0379956
2 -7.60194 -3.83271 0.202321
1 -3.89307 -3.8975 0.0658794
2 -0.133707 -3.83679 0.0622162
1 3.73606 -3.78209 0.141135
2 7.52244 -3.92856 0.0440544
2 11.3075 -4.12298 0.129708
3 15.2707 -4.09222 0.189468
1 18.999 -4.16401 0.104732
2 -22.7567 -0.0342661 -0.0787722
2 -19.1796 -0.0162669 -0.105774
2 -15.3653 -0.0499109 0.0965042
2 -11.4768 -0.121425 0.157927
2 -7.64459 0.181034 0.143597
1 -4.01892 0.0946718 0.213454
2 0.00899707 0.0351742 0.14482
2 3.84531 -0.125676 0.187858
1 7.59543 0.0565196 0.0973872
1 11.592 -0.0669409 -0.0229406
1 15.2997 -0.177889 0.218249
1 19.0709 -0.189994 0.149239
3 22.6803 -0.41914 0.0610629
3 -22.7956 3.80418 0.184807
3 -19.2349 4.1016 -0.0467749
1 -15.4382 3.93988 0.0695898
1 -11.5624 3.9212 0.0364801
2 -7.65946 3.99137 -0.0566138
2 -3.88475 4.02391 -0.0402574
2 -0.148575 4.07113 -0.0278479
1 3.59727 3.93205 0.0365438
2 7.74523 3.99029 0.014103
2 11.4198 3.96199 0.141138
1 15.3142 3.80683 -0.0155549
2 19.0414 3.71989 -0.0624592
2 -19.3458 7.60938 0.0114426
2 -15.441 7.84791 0.172939
1 -11.6205 7.73811 0.0490847
2 -7.64322 7.72928 0.00428437
3 -3.92608 7.89812 0.01721
2 -0.0365902 7.94783 0.0873605
1 3.62792 7.85913 0.0129092
1 7.5552 7.77297 0.0587485
2 11.4626 7.75564 0.0226018
2 15.3992 7.71798 0.0131053
1 19.0937 7.72821 -0.157149
2 -19.1477 11.6077 0.15017
2 -15.4178 11.5694 0.149753
2 -11.7143 11.7235 0.0846597
2 -7.82625 11.7263 0.076951
1 -4.0914 11.7293 0.0729513
2 0.016405 11.8014 0.00163983
1 3.64872 11.7594 0.0266372
2 7.76046 11.644 -0.174307
3 11.4878 11.5628 -0.0456384
3 15.3507 11.3903 -0.00168862
3 19.0348 11.3664 0.0464436
3 -15.2532 15.4794 0.093244
1 -11.6142 15.5137 0.0259449
3 -7.71701 15.4899 -0.0829284
1 -3.92518 15.6327 -0.0235139
1 -0.105525 15.6133 -0.098454
2 3.83923 15.5752 -0.217706
1 7.61186 15.3979 -0.117563
3 11.3446 15.291 -0.0226634
2 15.3917 15.3939 0.0431152
1 -11.4864 19.205 0.0387783
2 -7.9354 19.081 -0.0441451
3 -3.84206 19.1894 0.130187
1 0.0461133 19.0718 0.0900933
3 3.81144 19.1734 0.0443185
1 7.62091 19.325 -0.087071
3 -7.44964 22.7263 -0.148534
3 -3.94279 22.8128 0.110617
3 -0.207898 22.8781 0.107433
3 3.61233 22.92 0.00639978
3 3.71348 -22.5794 4.06761
3 -11.2901 -19.0023 3.66765
3 -7.47209 -19.183 3.62319
2 -3.69057 -19.3549 3.92575
2 -0.0862511 -19.2311 4.01523
1 3.9049 -19.1126 4.10924
1 7.86505 -19.3714 4.0702
2 11.7774 -19.0775 4.07763
2 -15.0414 -15.4519 3.67177
1 -11.4957 -15.3649 3.7506
2 -7.45322 -15.5525 3.7572
2 -3.6854 -15.5222 3.76918
2 -0.000167271 -15.4234 3.89003
1 3.87757 -15.6346 3.99215
2 7.82303 -15.6942 3.90752
2 11.5679 -15.6534 4.04702
3 15.3014 -15.4291 3.91197
3 -18.7549 -11.9124 3.69175
2 -15.2699 -11.6448 3.63181
2 -11.2023 -11.6446 3.73922
3 -7.58873 -11.6857 3.70249
2 -3.80146 -11.706 3.91054
2 0.170852 -11.8616 3.9812
2 3.99504 -11.7862 3.88368
2 7.71293 -11.9919 3.94415
2 11.4845 -11.6898 3.98749
3 15.2247 -11.7325 3.93011
2 18.8309 -11.5514 4.07284
3 -19.006 -8.02722 3.77928
1 -15.4739 -7.77658 3.96828
1 -11.5022 -7.79316 3.84211
1 -7.64116 -7.73959 3.82998
2 -3.75383 -7.88001 3.95678
2 0.117556 -7.77108 3.87216
2 3.81156 -7.78851 3.8229
2 7.66348 -7.82693 3.93831
1 11.5165 -7.82904 3.92101
2 15.2427 -7.96982 3.84989
2 18.8978 -7.9112 3.98582
3 -21.9405 -3.80895 3.8978
2 -19.3321 -3.83182 3.8502
2 -15.4595 -3.90067 3.8603
2 -11.5666 -3.91939 3.96665
2 -7.66923 -3.82697 3.93789
2 -3.8197 -3.89425 4.0137
2 0.0858172 -3.98562 3.93697
1 3.79247 -3.9101 3.92189
2 7.60679 -3.85837 4.01436
1 11.4811 -3.95315 3.84181
3 15.3571 -4.12981 4.03738
1 19.0587 -4.00918 3.91075
2 22.582 -4.25719 3.75694
2 -19.1926 0.219931 3.86688
1 -15.3706 0.0198798 3.82109
1 -11.6309 0.0527886 3.91593
2 -7.86068 -0.0355407 4.07175
1 -3.91445 0.103334 3.91622
3 0.112808 0.0912819 3.89828
2 3.88156 0.177734 3.73074
2 7.74644 -0.0862582 3.74719
2 11.4665 -0.0654338 3.80244
2 15.3606 -0.198006 3.83912
1 19.2388 -0.0987082 4.02215
3 22.5289 -0.130914 4.09027
3 -22.7634 3.74812 3.77828
3 -18.9689 3.79744 3.84624
2 -15.4134 3.8614 3.90801
1 -11.4509 3.85102 4.02522
2 -7.6746 3.83581 3.8579
2 -3.85462 3.88878 4.05803
2 -0.223673 4.02104 3.99413
2 3.7031 3.86515 4.04633
2 7.68518 3.75867 3.8737
1 11.5615 3.77818 3.94323
1 15.4036 3.72124 3.95651
3 19.168 3.66087 3.9462
2 -19.2055 7.66958 3.83677
1 -15.5412 7.77677 3.91658
1 -11.5212 7.79484 3.85382
1 -7.84695 7.79497 3.91454
2 -3.90582 7.8352 3.92566
2 -0.148266 7.77751 3.92979
2 3.78091 7.84137 3.87192
3 7.57688 7.78905 3.79631
3 11.3698 7.69684 3.81999
2 15.3858 7.64989 3.72423
2 19.2348 7.86322 4.05625
3 -19.0785 11.636 3.986
3 -15.2516 11.6632 4.06439
2 -11.5673 11.7249 3.79678
2 -7.883 11.7121 3.94134
1 -4.06232 11.8064 3.90118
1 -0.221731 11.7875 3.81384
3 3.71719 11.6173 3.85935
2 7.65887 11.6535 3.94198
1 11.5973 11.5646 3.82523
2 15.3607 11.5524 3.81165
3 18.9114 11.3606 3.90181
3 -15.3727 15.5354 4.10128
1 -11.6095 15.3354 3.79818
1 -7.75313 15.5488 3.97561
1 -3.98362 15.5709 3.95914
2 -0.146962 15.5381 3.82474
1 3.92416 15.5766 3.84696
3 7.62479 15.6003 3.79791
1 11.3726 15.3007 3.7414
2 15.4194 15.2252 3.66251
3 -11.4714 19.092 3.98503
2 -7.7313 19.2142 3.8067
3 -3.79639 19.321 3.93235
2 0.0782343 19.1981 3.95306
1 3.89145 19.2947 3.89302
3 7.86913 19.1986 3.91407
1 11.3902 19.0719 3.84992
1 -4.0788 22.704 3.99907
3 -0.261485 22.6252 3.66979
3 -7.93389 -19.3593 7.44166
1 -4.00956 -19.2932 7.72462
3 0.07105 -19.2407 7.86297
2 3.74847 -19.1766 8.03576
3 7.54202 -19.0518 7.95914
2 -11.4394 -15.5105 7.55382
3 -7.72763 -15.5847 7.51542
2 -3.85534 -15.5467 7.77523
2 0.161117 -15.4441 7.78183
1 3.88305 -15.3817 7.81841
3 7.53823 -15.5165 7.90451
3 11.4224 -15.4141 7.69531
3 15.1723 -15.363 8.02315
3 -15.1933 -11.7326 7.71677
1 -11.4282 -11.8335 7.76882
2 -7.65226 -11.762 7.55082
3 -3.67709 -11.7431 7.68449
1 0.120314 -11.6721 7.77613
2 3.91184 -11.8545 7.69423
2 7.6989 -11.599 7.87587
2 11.5856 -11.528 7.84177
3 15.42 -11.5337 7.74578
2 -19.1189 -8.17586 7.96211
1 -15.3915 -7.9026 7.85108
1 -11.4148 -7.85635 7.65007
1 -7.69214 -7.96731 7.5857
1 -3.75872 -7.96638 7.63822
2 0.187916 -7.86593 7.75046
2 4.02275 -7.81368 7.74762
2 7.83973 -7.76614 7.69805
1 11.5026 -7.84547 7.81908
2 15.2088 -7.81193 7.65232
3 19.2076 -7.82593 7.67471
3 -19.2149 -3.87693 7.3382
3 -15.3843 -3.92819 7.64906
2 -11.6188 -3.91922 7.80679
2 -7.6129 -3.90911 7.71761
1 -3.74798 -3.93839 7.74878
1 0.064925 -3.76694 7.78039
1 3.89772 -3.95004 7.68845
2 7.64407 -3.84348 7.66836
2 11.4472 -3.82664 7.67384
2 15.3264 -3.97647 7.73023
2 18.9928 -4.0376 7.69025
2 -19.0529 0.275684 7.71204
2 -15.4272 0.0706443 7.91102
1 -11.5739 0.0308147 7.82111
1 -7.60505 -0.0963055 7.72722
2 -3.77577 0.0679194 7.58753
1 -0.00447913 0.2833 7.55021
3 3.95343 0.130415 7.6924
2 7.76054 -0.0391152 7.65493
2 11.6106 -0.06483 7.59227
1 15.2729 0.0495474 7.7562
2 19.0862 -0.251309 7.6237
2 -18.9917 3.90518 7.77352
1 -15.2049 3.75772 7.78406
3 -11.5124 3.90397 7.87736
2 -7.74775 3.95308 7.91575
2 -3.76216 4.04746 7.82605
1 -0.0796014 3.94726 7.69052
2 3.91407 3.93479 7.68529
2 7.73602 3.6464 7.70582
2 11.5505 3.86699 7.68327
2 15.4037 3.89481 7.71625
2 19.1158 3.76821 7.75728
2 -18.9678 7.74355 7.79262
1 -15.3722 7.67586 7.90819
2 -11.5212 7.72826 7.82335
2 -7.69966 7.78264 7.79779
2 -4.09027 7.80257 7.76546
2 -0.125466 8.00418 7.65704
2 3.9502 7.71604 7.55062
1 7.61766 7.68056 7.6701
2 11.6213 7.70421 7.79288
2 15.4233 7.76813 7.75523
1 19.3635 7.75193 8.02407
2 -18.8523 11.5494 7.77941
3 -15.205 11.5512 7.76796
2 -11.5903 11.6646 7.7993
2 -7.6857 11.7794 7.8647
1 -3.84094 11.767 7.86273
2 -0.224992 11.7762 7.71195
2 3.66942 11.5989 7.67725
1 7.72389 11.663 7.75846
1 11.5419 11.7532 7.62854
1 15.3225 11.5298 7.60094
2 19.0339 11.4578 7.8061
3 -11.5872 15.3716 7.8908
2 -7.68156 15.49 7.89115
1 -3.86201 15.6061 7.72893
3 0.150724 15.6061 7.53027
2 3.88833 15.5188 7.65703
2 7.77756 15.5032 7.62773
1 11.7314 15.4632 7.53015
3 15.1881 15.3058 7.23357
1 -11.3851 18.8798 7.74861
3 -7.6113 19.0396 7.92042
2 -3.89809 19.4158 7.88907
3 -0.0404957 19.4101 7.62502
3 3.81748 19.3192 7.75315
1 7.77889 19.0904 7.73638
3 11.4333 18.7225 7.61215
3 -7.19277 -18.2493 11.6986
1 -3.7694 -19.1283 11.6678
3 -0.0741162 -19.2382 11.7778
1 4.00462 -19.1071 11.7119
2 -11.4782 -15.3534 11.9661
2 -7.36212 -15.7154 11.6849
3 -3.73826 -15.5253 11.6639
2 0.0553753 -15.5154 11.6497
1 3.90617 -15.4057 11.7203
3 7.66087 -15.5065 11.7446
3 11.3582 -15.529 11.5903
3 -15.2923 -11.6321 11.5278
1 -11.4557 -11.7067 11.4802
2 -7.4916 -11.6834 11.5542
1 -3.76405 -11.7658 11.5631
1 0.0689045 -11.7403 11.6341
3 3.94156 -11.7168 11.6547
1 7.77979 -11.635 11.5413
3 11.6512 -11.545 11.6034
2 -15.1761 -7.84469 11.6079
3 -11.4511 -7.85805 11.5503
1 -7.62045 -7.81806 11.4807
2 -3.66077 -7.84239 11.4356
1 0.117664 -7.77423 11.494
2 4.01563 -7.80398 11.6106
2 7.80231 -7.58722 11.6618
2 11.5433 -7.70828 11.7679
3 15.3367 -7.72311 11.4815
3 18.8244 -7.78441 11.6335
2 -19.1894 -4.05102 11.5412
2 -15.4179 -3.99081 11.6867
2 -11.4843 -3.87538 11.4183
2 -7.67128 -3.92334 11.5622
1 -3.74343 -3.85766 11.5038
1 0.085079 -3.83557 11.5983
1 3.85972 -3.69085 11.5035
2 7.73498 -3.88948 11.5573
2 11.5933 -3.79194 11.4977
1 15.4067 -3.9611 11.672
1 -15.4544 -0.0893986 11.5519
2 -11.4786 -0.14599 11.4616
1 -7.75253 0.0336242 11.5062
1 -3.80676 -0.00614494 11.5642
2 0.142555 0.264489 11.5792
2 3.75009 0.131616 11.4853
1 7.73542 0.00237793 11.5269
2 11.5684 -0.0262344 11.7505
3 15.4814 -0.0157859 11.5685
2 19.0979 -0.460103 11.7893
2 -18.9226 3.88058 11.5355
1 -15.2721 3.85914 11.5448
2 -11.418 4.03957 11.4698
1 -7.78726 3.942 11.6739
1 -3.72267 3.90965 11.4285
2 0.0412438 3.98045 11.6643
1 3.93542 3.97892 11.6322
2 7.84918 3.93681 11.6883
3 11.5721 3.91466 11.642
1 15.4044 3.99678 11.6541
2 18.9675 3.93475 11.6783
2 -15.3729 7.87898 11.5483
3 -11.4935 7.68689 11.576
2 -7.66634 7.83817 11.6345
3 -3.82468 7.85448 11.5254
2 -0.143605 7.81955 11.6688
3 3.74604 7.78417 11.6149
2 7.65362 7.58535 11.6083
1 11.7004 7.71776 11.3758
2 15.2125 7.71081 11.3944
3 -15.2619 11.417 11.4067
2 -11.4878 11.5937 11.5698
3 -7.81905 11.6136 11.4748
3 -3.89443 11.7713 11.6247
2 -0.0201142 11.6608 11.5722
1 3.89144 11.5766 11.5799
1 7.75921 11.4729 11.3779
2 11.6625 11.5128 11.3771
2 15.2705 11.3893 11.3058
3 -11.2737 15.5061 11.5165
2 -7.5341 15.5033 11.6144
1 -3.84445 15.4739 11.5502
2 -0.0324374 15.412 11.7226
2 3.99625 15.5852 11.6177
1 7.60085 15.3901 11.3576
1 11.5028 15.3073 11.6377
2 -4.08664 19.3452 12.0044
3 0.0521953 19.1482 11.5892
2 3.93947 19.1283 11.6596
2 -7.57402 -15.2778 15.3911
2 -3.79208 -15.2637 15.3065
2 0.00226384 -15.4637 15.5723
3 3.94229 -15.2324 15.4329
1 7.71999 -15.2414 15.2799
3 -11.3862 -11.5987 14.9193
2 -7.66561 -11.5103 15.1869
2 -3.75126 -11.5657 15.3143
2 0.175671 -11.6197 15.5396
2 4.06259 -11.6117 15.3242
3 7.86841 -11.5329 15.3449
2 11.8217 -11.7029 15.2504
3 -15.0741 -7.7876 15.0789
2 -11.4404 -7.83423 15.2903
3 -7.65556 -7.84205 15.3141
3 -3.78082 -7.77984 15.3116
1 -0.00300681 -7.69326 15.3326
2 3.89445 -7.67368 15.3422
3 7.81549 -7.68234 15.3358
2 11.5338 -7.44842 15.4025
2 15.2032 -7.89053 15.344
2 -15.2604 -3.9684 15.074
1 -11.615 -4.02454 15.3704
2 -7.59674 -3.97279 15.3866
1 -3.84427 -3.95553 15.2779
3 -0.103147 -3.91375 15.2575
1 3.90279 -3.87673 15.3669
1 7.66321 -3.88747 15.3121
2 11.5095 -3.82625 15.4493
2 15.1199 -3.77309 15.1599
3 -15.2816 -0.209146 15.1907
2 -11.4768 -0.171156 15.3214
2 -7.91239 -0.265492 15.353
1 -3.86451 -0.101376 15.4209
2 -0.0103101 0.0219174 15.1883
2 3.83514 0.134055 15.2968
1 7.73854 -0.0486518 15.3491
3 11.462 -0.0806477 15.266
1 15.4273 -0.0206287 15.5712
3 -11.6791 3.83528 15.1445
1 -7.71048 3.87005 15.2118
1 -3.89828 3.88665 15.4291
3 -0.0883644 3.93251 15.3869
3 3.91939 3.9408 15.427
2 7.58148 3.94082 15.5515
2 11.4631 3.95742 15.4945
3 15.0773 3.94745 15.4779
3 -15.2927 7.76865 15.1799
1 -11.2165 7.76441 15.5656
2 -7.6589 7.95148 15.6538
2 -3.78634 7.8547 15.3558
1 -0.0238233 7.81367 15.2919
1 3.80429 7.73571 15.3973
2 7.58707 7.68981 15.4618
3 11.4576 7.64765 15.2587
3 15.3447 8.07923 15.1689
2 -11.4218 11.6106 15.2931
1 -7.82911 11.8773 15.4392
2 -3.80275 11.6538 15.4398
3 -0.0609116 11.6624 15.3451
2 3.83518 11.4773 15.4948
2 7.90485 11.5058 15.2041
1 11.552 11.5903 15.106
1 -7.63072 15.2883 15.2519
2 -3.8207 15.5795 15.8188
2 0.169697 15.4296 15.3824
3 4.0954 15.1558 15.2445
3 7.84815 15.1169 15.1061
3 -7.84859 -11.3094 18.6831
2 -3.80344 -11.3769 18.9898
3 0.168653 -11.322 19.043
3 4.23431 -11.4025 19.0706
3 -11.6258 -7.88852 18.6778
3 -8.02415 -7.89069 19.0987
3 -3.90666 -7.63516 19.1418
3 0.184147 -7.7658 19.0106
2 3.85851 -7.59606 19.009
3 7.67595 -7.6036 19.1597
3 11.5116 -7.72558 18.8009
1 -11.5761 -3.88542 18.8015
2 -7.8256 -3.97365 18.934
2 -3.8417 -3.94188 19.0818
2 0.0712013 -3.9315 19.1119
1 3.89101 -3.86461 19.127
1 7.71689 -3.84377 19.0797
2 -7.71844 -0.0875054 19.0783
3 -3.6745 -0.041266 19.0553
3 -0.0648958 0.0746526 19.0808
1 3.81098 -0.138995 19.0841
2 7.63458 -0.0474994 19.0406
3 11.6013 0.0208417 18.9805
3 -11.4714 3.68878 18.8306
1 -7.81797 3.65 18.9596
1 -3.89994 3.89517 19.1508
2 0.0221152 3.95782 19.0294
1 3.91739 3.87502 19.1604
1 7.47819 3.83017 19.2382
3 11.3405 3.92515 19.0493
1 -8.21853 7.66572 18.93
3 -3.69784 7.87415 19.0019
1 0.173282 7.74272 18.984
3 3.80327 7.64828 19.0801
3 -3.54069 11.5755 19.0252
3 0.136656 11.4982 19.1254
2 3.822 11.5599 19.2578
3 7.93367 11.505 18.706
3 -3.80955 -3.73053 22.5204
1 0.0411929 -3.84286 22.8108
3 4.03067 -3.79549 22.5784
1 -7.69113 -0.216354 22.564
1 -3.81606 -0.1468 22.5663
2 0.255962 -0.173408 22.6558
1 3.89408 -0.126593 22.6058
3 3.68544 3.95377 22.3702
3 0.345203 7.71763 22.4866
2 -1.69773 -5.44711 -22.7243
3 1.63073 -5.74781 -22.6212
3 -2.08353 -1.7228 -22.7084
3 1.81209 -1.88255 -22.5786
3 5.77732 -1.81365 -22.5166
1 -1.87535 2.01508 -22.492
3 -2.00475 5.83108 -22.6937
2 2.08519 5.71101 -22.9487
3 -5.75394 -11.5086 -17.2577
2 -1.74574 -13.2032 -19.2145
3 2.01677 -13.1678 -19.1421
3 -9.46772 -9.53768 -18.9369
2 -5.65806 -9.66677 -19.0903
2 -1.65269 -9.64626 -19.2479
3 1.95243 -9.50651 -19.0477
3 5.88544 -9.73702 -18.968
3 -9.5812 -5.75543 -19.0994
3 -5.73549 -5.92398 -19.0546
3 -1.88226 -5.77235 -19.2591
3 1.8718 -5.65159 -19.0102
1 5.88213 -5.7736 -19.2557
2 9.77064 -5.94783 -19.2453
3 13.2002 -5.73908 -18.7897
3 -13.4375 -1.91903 -18.8956
3 -9.45191 -2.06004 -19.1993
1 -5.77995 -1.89331 -19.124
3 -2.00857 -1.68875 -19.0365
2 2.01121 -2.00187 -19.2528
2 5.72778 -1.94071 -19.0571
3 9.48143 -1.85507 -19.1071
3 -5.83639 1.9725 -19.3418
2 -1.9853 2.23536 -19.0846
2 2.2075 1.97501 -19.1851
3 5.8292 2.04727 -19.3026
3 -9.51944 5.89075 -19.2946
3 -5.72913 5.91233 -19.1152
3 -1.93618 5.94523 -19.2927
2 1.91113 5.83517 -19.1095
1 5.8503 5.85194 -19.0038
3 9.60582 5.76789 -19.0137
2 -9.51753 9.55076 -19.0062
3 -5.4934 9.59498 -19.0982
3 -1.9758 9.5833 -19.1723
3 2.06361 9.6186 -19.0603
2 5.90709 9.58719 -19.0639
1 9.70147 9.60301 -18.954
3 -5.54319 13.1209 -19.1381
3 -1.84188 -16.9315 -15.4411
3 2.11666 -17.0994 -15.2463
1 -9.67687 -13.2444 -15.3423
3 -1.83944 -13.3271 -15.449
2 1.8396 -13.2686 -15.3975
1 5.6839 -13.4834 -15.3247
2 9.71229 -13.6982 -15.1631
3 -13.2203 -9.47487 -15.2452
2 -9.60721 -9.71705 -15.396
2 -5.7222 -9.66754 -15.3122
1 -1.85308 -9.59003 -15.4277
2 1.96675 -9.61116 -15.4468
2 5.8 -9.62167 -15.3892
3 9.60941 -9.73868 -15.2572
2 13.4846 -9.94095 -15.1243
1 -13.3973 -5.79565 -15.2491
1 -9.32502 -5.81883 -15.4513
2 -5.74434 -5.92587 -15.4415
3 -1.89095 -5.85197 -15.3745
2 1.83343 -5.64785 -15.4666
2 5.86756 -5.80324 -15.3251
1 9.62002 -5.90668 -15.2132
3 13.3447 -5.93334 -15.153
1 -13.4271 -1.89023 -15.4367
2 -9.64508 -1.83119 -15.4015
2 -5.73934 -1.86574 -15.2568
2 -1.97008 -1.88938 -15.3935
1 1.90206 -2.06176 -15.4556
2 5.9048 -1.95306 -15.4549
2 9.72368 -1.98562 -15.3711
3 13.3931 -2.10252 -15.2637
3 17.076 -2.08071 -15.091
2 -17.088 1.75272 -15.2319
2 -13.4364 1.95305 -15.4571
2 -9.65991 2.03441 -15.5133
3 -5.84321 2.08529 -15.4329
1 -2.06743 2.04184 -15.446
2 1.95794 2.00958 -15.5179
1 5.78296 1.93185 -15.3451
1 9.76513 1.89465 -15.3402
2 13.5627 1.83192 -15.2041
1 17.208 1.86116 -14.9762
2 -17.0661 5.57206 -15.3475
2 -13.6316 5.75512 -15.4833
3 -9.58286 5.7788 -15.4798
1 -5.67764 5.77522 -15.5556
2 -2.05723 5.89888 -15.333
1 1.84234 5.89117 -15.4523
2 5.6934 5.79553 -15.4839
1 9.61023 5.88507 -15.3224
2 13.4215 5.81021 -15.239
3 17.6337 5.19057 -15.1595
3 -13.3017 9.45818 -15.2783
3 -9.42949 9.71392 -15.604
1 -5.69633 9.65583 -15.4076
2 -2.18337 9.5658 -15.4608
3 1.84896 9.69354 -15.4288
1 5.70726 9.64932 -15.4102
3 9.58761 9.36042 -15.3375
3 13.3748 9.73541 -15.3235
2 -9.6327 13.3155 -15.4681
3 -5.74697 13.4192 -15.6684