4321
 Atoms. Timestep: 4193
3 -0.0699016 -7.94954 -22.9249
3 -3.88908 -4.11416 -22.9725
3 0.0781779 -3.95481 -23.0566
1 3.88621 -4.17187 -22.9361
3 -7.58761 -0.0255532 -22.962
2 -4.00145 -0.00440203 -23.1159
3 -0.236897 -0.272547 -22.9424
2 3.82349 -0.006741 -23.1727
3 7.42271 -0.248087 -23.0266
2 -3.99958 3.79999 -22.9967
3 0.0728855 3.9615 -23.1758
3 3.86731 3.61283 -22.905
2 0.0705072 7.73941 -23.1376
3 -7.72632 -11.8171 -19.0246
3 -3.7121 -11.8974 -19.1496
1 0.0464524 -11.9249 -19.1728
2 3.87315 -11.9311 -19.2146
3 7.86454 -11.6038 -18.7651
3 -11.2803 -8.01291 -19.0842
2 -7.79229 -7.79018 -19.3068
2 -3.75436 -7.84957 -19.3738
3 0.10348 -7.87823 -19.2466
1 3.87037 -8.15959 -19.3207
2 7.67708 -8.00262 -18.9378
2 11.6616 -7.94937 -18.9589
2 -11.7487 -4.07923 -19.3694
2 -7.69212 -3.88022 -19.3934
2 -3.86575 -3.88988 -19.4152
1 0.054434 -4.11704 -19.4668
3 3.82186 -4.25219 -19.476
2 7.74394 -3.9452 -19.2529
2 11.5385 -4.04079 -19.0959
2 -11.6471 0.15006 -19.4756
1 -7.73598 0.190965 -19.2887
2 -3.90524 0.0424264 -19.3765
1 0.00501458 0.0244391 -19.5258
3 3.79221 0.00540893 -19.4563
2 7.79739 -0.100175 -19.3988
3 11.4778 -0.141266 -19.188
3 -11.5324 3.88566 -19.1991
2 -7.73044 3.90849 -19.3605
2 -4.08496 3.78162 -19.428
3 0.0990081 3.83651 -19.3318
2 3.93577 3.77884 -19.3765
3 7.64815 3.81019 -19.4386
3 11.5729 3.7408 -19.2101
3 -11.4797 7.85284 -19.1883
2 -7.56486 7.98217 -19.2821
2 -3.7746 7.9653 -19.4794
2 -0.0540949 7.71897 -19.3508
3 3.84464 7.72619 -19.4244
2 7.6073 7.81414 -19.2423
2 11.3271 7.71287 -19.1892
3 -7.8068 11.727 -19.0282
2 -3.82971 11.6407 -19.5616
2 0.0270988 11.6039 -19.6338
2 3.89589 11.8156 -19.4227
3 7.82823 11.6699 -19.0884
3 -7.68469 -15.481 -15.2109
1 -3.82204 -15.838 -15.5322
3 -0.00665738 -15.5258 -15.4038
2 4.0929 -15.6179 -15.4927
3 7.77141 -15.4207 -15.1595
3 -11.5992 -11.8918 -15.3445
2 -7.75344 -11.9135 -15.5865
3 -3.79586 -11.8848 -15.434
2 0.0574404 -11.7382 -15.4422
1 3.85789 -11.7603 -15.3328
2 7.7758 -11.8039 -15.2351
1 12.2104 -12.0796 -15.4915
3 -15.0911 -7.75957 -15.4503
1 -11.4264 -7.89451 -15.3786
2 -7.60799 -7.85774 -15.6352
2 -3.87903 -7.98103 -15.5215
1 0.049327 -7.99745 -15.61
1 3.72667 -7.9701 -15.4579
1 7.61008 -7.5902 -15.4059
2 11.4899 -7.8646 -15.3938
3 15.3902 -7.719 -15.3357
2 -15.4529 -4.13077 -15.5362
2 -11.7308 -4.21538 -15.5942
1 -7.56592 -3.88333 -15.6913
1 -3.95332 -3.93261 -15.6081
2 0.142061 -3.89414 -15.695
1 3.77893 -4.08658 -15.5574
2 7.61472 -3.85186 -15.4604
2 11.6289 -3.99392 -15.6393
2 15.3591 -3.94755 -15.385
1 -15.3341 0.0681452 -15.4878
2 -11.6996 -0.0887209 -15.6802
2 -7.8682 0.150503 -15.657
1 -3.85759 -0.0619076 -15.7531
3 -0.166764 -0.212353 -15.7305
3 3.6818 -0.0278763 -15.5676
2 7.57624 -0.0125256 -15.7351
2 11.6463 -0.232677 -15.557
2 15.3018 -0.24858 -15.2219
3 -15.4147 4.10084 -15.4242
2 -11.5764 3.9891 -15.5453
2 -7.75644 4.10258 -15.6311
2 -3.95229 3.87209 -15.6886
1 -0.108288 3.77783 -15.5717
2 3.79284 3.88313 -15.4503
3 7.88848 3.87022 -15.468
2 11.4707 3.78702 -15.5382
2 15.3254 3.70589 -15.4799
3 -15.2338 7.78167 -15.3143
1 -11.6435 7.74177 -15.4027
3 -7.62239 8.01452 -15.5601
1 -3.8376 7.9843 -15.5841
2 0.05066 7.81273 -15.5665
2 3.71101 7.82056 -15.6603
1 7.59388 7.52889 -15.6452
2 11.4767 7.736 -15.4963
3 15.1183 7.61917 -15.2785
1 -11.5587 11.7669 -15.481
2 -7.61149 11.9279 -15.5842
3 -3.78182 11.8598 -15.7215
2 -0.0557716 11.8516 -15.7819
1 3.86568 11.6903 -15.6904
2 7.61273 11.5872 -15.687
3 11.6672 11.4234 -15.3011
3 -7.78515 15.6049 -15.5423
1 -4.01864 15.9153 -15.7437
1 -0.0643748 15.8233 -15.3975
1 3.86097 16.2553 -15.9712
3 7.73739 15.0735 -15.3607
3 -7.76436 -18.9022 -11.3341
3 -3.80728 -19.3429 -11.6231
1 -0.0488053 -19.2933 -11.7079
3 3.8649 -19.2834 -11.7279
2 8.09908 -19.2203 -11.5631
2 -11.6211 -15.4298 -11.6138
2 -7.6601 -15.4038 -11.5141
1 -3.82322 -15.6027 -11.5971
2 0.148649 -15.6421 -11.6376
1 3.91474 -15.6859 -11.4602
2 7.86407 -15.7212 -11.5194
2 11.7851 -15.4053 -11.4135
2 -15.2565 -11.8158 -11.6489
2 -11.5025 -11.6472 -11.7481
2 -7.84459 -11.9302 -11.6228
2 -3.89203 -11.7248 -11.6729
2 0.0298049 -11.7048 -11.6258
2 3.90419 -11.8017 -11.8259
2 7.77256 -11.6194 -11.4985
3 11.6543 -11.7333 -11.499
3 15.6046 -11.6297 -11.3645
1 -19.134 -7.7059 -11.5153
2 -15.4148 -7.76086 -11.4581
3 -11.3702 -7.85031 -11.5914
1 -7.86485 -7.73677 -11.7095
2 -3.85492 -7.89177 -12.0108
2 0.125283 -7.92144 -11.5026
1 3.76209 -7.75853 -11.6298
1 7.56201 -7.74407 -11.6716
1 11.5626 -7.96533 -11.588
2 15.6161 -7.79189 -11.5836
2 18.9639 -7.5496 -11.4711
2 -19.1546 -4.00838 -11.7132
1 -15.5145 -3.90731 -11.699
1 -11.6327 -4.05412 -11.7981
1 -7.89467 -3.92653 -11.89
2 -3.91602 -3.82675 -11.7964
2 -0.252501 -3.98717 -11.86
2 3.57809 -3.94112 -11.6515
1 7.66638 -3.77914 -11.9101
2 11.4955 -3.95093 -11.7269
2 15.4732 -3.93438 -11.7513
3 18.9828 -3.74877 -11.6928
3 -19.0722 0.0145778 -11.5912
1 -15.2812 0.0785665 -11.7843
2 -11.639 -0.0152968 -11.8773
2 -7.81167 0.0866204 -11.758
1 -3.99162 0.0930535 -12.0503
2 -0.19381 -0.0653396 -11.8196
2 3.82451 0.029769 -11.7792
2 7.74594 -0.0436154 -11.6695
2 11.5277 -0.0523517 -11.6904
3 15.3728 -0.136196 -11.5744
2 19.1325 0.0424463 -11.5254
1 -19.163 4.13492 -11.7657
2 -15.4644 4.0386 -11.7283
1 -11.4783 4.05083 -11.8434
1 -7.77186 3.96869 -11.8589
2 -3.97657 3.91107 -11.8091
2 -0.223642 3.8187 -11.8261
2 3.76139 3.95084 -11.7459
2 7.5287 3.95254 -11.7044
1 11.5555 3.75927 -11.6814
1 15.2988 3.77077 -11.7265
3 19.123 3.81535 -11.64
1 -18.9649 7.81057 -11.4329
2 -15.307 7.68193 -11.5157
1 -11.3267 7.74513 -11.7367
2 -7.81564 7.93341 -11.8318
1 -3.96901 7.92585 -11.919
2 -0.0294036 7.84231 -11.7852
1 3.77523 7.81828 -11.7962
2 7.6902 7.68326 -11.7504
1 11.5561 7.56376 -11.8147
2 15.237 7.64887 -11.7038
3 18.9993 7.73631 -11.5619
3 -15.3812 11.6163 -11.7635
2 -11.4537 11.7113 -11.8584
2 -7.67787 11.7115 -11.669
2 -3.74388 11.731 -11.7235
1 0.0585198 11.6383 -11.7886
3 3.76756 11.7845 -11.7617
1 7.53512 11.4984 -11.825
2 11.435 11.5211 -11.6782
3 15.3154 11.4689 -11.5181
3 -11.6285 15.5702 -11.6023
1 -7.77458 15.6516 -11.545
1 -3.96585 15.5766 -11.7171
1 0.0100683 15.7339 -12.0121
3 4.01789 15.6309 -11.6959
3 7.74026 15.4247 -11.606
2 11.4499 15.2949 -11.6821
3 -7.92638 19.2084 -11.4031
3 -4.00598 19.3813 -11.5891
3 -0.168899 19.3904 -11.5073
2 3.97119 19.2863 -11.4806
3 7.82099 19.2097 -11.3512
2 0.039592 -22.8057 -7.527
3 -11.7667 -19.1843 -7.58087
2 -7.93738 -19.3834 -7.41118
3 -3.82181 -19.4036 -7.66266
2 -0.087192 -19.6049 -7.73737
2 3.97653 -19.4473 -7.82298
2 8.21695 -19.6727 -7.433
1 12.0308 -18.9658 -7.94006
3 -15.2865 -15.3582 -7.60353
1 -11.6146 -15.544 -7.63415
2 -7.86541 -15.5111 -7.47703
2 -3.66728 -15.6229 -7.67987
3 0.00589816 -15.6462 -7.52822
2 3.86952 -15.5847 -7.80042
2 7.89856 -15.7152 -7.6546
2 11.8193 -15.4824 -7.85653
1 15.7204 -15.2437 -7.8037
2 -18.9951 -11.3394 -7.49262
3 -15.4403 -11.5739 -7.71137
3 -11.5673 -11.5795 -7.75155
1 -7.86037 -11.8103 -7.74253
2 -4.12124 -11.6465 -7.82221
2 -0.0923708 -11.7127 -7.76248
2 4.01831 -11.8568 -7.80656
2 7.82216 -11.7725 -7.76431
1 11.5774 -11.5905 -7.63868
1 15.4027 -11.534 -7.55031
3 19.0326 -11.2491 -7.49218
3 -19.0442 -7.69352 -7.67989
2 -15.4053 -7.72973 -7.78455
1 -11.6674 -7.8439 -7.69115
3 -7.84634 -7.84907 -7.98549
2 -3.97912 -7.83441 -7.79595
1 -0.128881 -7.645 -7.85462
2 3.7793 -7.80202 -7.84427
1 7.67881 -7.58786 -7.78444
2 11.5743 -7.62675 -7.84415
2 15.453 -7.66078 -7.70111
1 19.041 -7.58498 -7.62871
2 -18.9805 -3.76519 -7.80351
2 -15.3995 -3.88027 -7.79283
2 -11.5329 -3.87282 -7.85821
2 -7.83148 -4.09774 -7.99983
2 -3.95482 -3.86001 -7.97946
1 -0.158447 -3.9967 -8.09156
1 3.83472 -3.83622 -7.92386
2 7.63613 -3.98874 -7.7902
1 11.4916 -3.86389 -7.8582
2 15.3865 -3.86048 -7.76791
1 19.3028 -3.8605 -7.74873
3 -22.5226 0.0222594 -7.55976
3 -18.872 0.0386613 -7.70899
2 -15.3685 0.0726479 -7.87359
2 -11.5354 0.0156581 -8.04176
1 -7.80768 -0.107917 -7.93149
2 -3.83186 -0.0150039 -8.19067
1 -0.294858 -0.0305218 -8.03715
1 3.81793 -0.0179494 -7.8439
2 7.65132 -0.059591 -7.66307
1 11.6842 0.0311987 -7.74175
2 15.0949 0.135135 -7.58647
1 19.2488 -0.115189 -7.68516
2 22.8667 0.107529 -7.7655
3 -19.1006 4.00099 -7.79093
2 -15.4429 4.06256 -7.75676
3 -11.3576 4.18327 -7.74918
2 -7.643 3.91187 -8.01926
1 -3.93383 3.87474 -7.95821
2 -0.160278 3.83315 -8.11099
1 3.76981 3.90445 -7.88032
3 7.53819 3.75712 -7.93549
3 11.389 3.9557 -7.60401
2 15.3524 3.72277 -7.98828
2 19.265 3.85241 -7.77884
3 -19.1596 7.56504 -7.94601
1 -15.3783 7.88355 -7.62794
1 -11.4043 7.82444 -7.80962
3 -7.68963 7.87997 -7.90662
2 -3.97737 7.86246 -7.86467
2 -0.1309 7.72387 -7.97433
2 3.83171 7.54797 -7.89565
3 7.59706 7.61293 -7.87292
2 11.3029 7.60484 -7.8499
2 15.2009 7.66686 -7.74549
3 19.0921 7.59915 -7.63644
3 -18.9798 11.6117 -7.61862
2 -15.385 11.6175 -7.5435
1 -11.5968 11.7812 -7.78228
2 -7.70348 11.7288 -8.03728
3 -3.93096 11.714 -7.97166
2 -0.145112 11.6038 -8.02247
2 3.76745 11.5812 -7.95003
1 7.52852 11.4654 -7.89308
2 11.4755 11.4212 -7.95672
2 15.2801 11.3383 -7.81887
3 18.7975 11.3297 -7.84855
1 -15.2721 15.3805 -7.8944
3 -11.5133 15.5576 -7.81888
3 -7.59787 15.6032 -7.84158
2 -3.89992 15.5944 -8.01435
2 0.0238981 15.6025 -7.8059
3 3.82235 15.3858 -7.85923
1 7.71369 15.3948 -7.73348
2 11.3024 15.3331 -7.76954
3 15.0859 14.9717 -7.51179
3 -11.3776 19.3166 -7.71636
2 -7.56422 19.354 -7.80063
3 -3.8835 19.2441 -7.61183
2 0.0417354 19.302 -7.78891
2 3.83977 19.2757 -7.80333
3 7.81702 19.1387 -7.6427
3 11.3725 18.8257 -7.56517
3 -0.0323577 22.6759 -7.51469
3 -4.17024 -22.6598 -3.82875
2 0.0774114 -22.9715 -3.70842
3 3.73337 -22.5742 -3.63663
1 -11.8439 -19.2598 -3.5382
3 -7.89428 -19.2366 -3.56233
1 -3.83965 -19.4419 -3.82515
3 0.0237517 -19.4018 -3.8126
2 3.90249 -19.4687 -3.71932
2 7.96366 -19.7646 -4.29116
2 12.1726 -19.3934 -3.90946
1 -15.5729 -15.553 -3.71269
3 -11.8441 -15.4422 -3.78304
2 -7.85978 -15.6052 -3.49438
2 -3.88 -15.7559 -3.82917
2 0.00907953 -15.5784 -3.91076
2 3.92701 -15.5925 -3.88829
2 7.78323 -15.4409 -3.96559
2 11.5902 -15.3163 -3.93494
3 15.6219 -15.2789 -3.75248
2 -19.6095 -11.7595 -4.0294
2 -15.3948 -11.4519 -3.82893
3 -11.6395 -11.5458 -3.8646
2 -7.82769 -11.5317 -3.97737
2 -3.9936 -11.8041 -3.82721
1 -0.0595533 -11.6855 -4.20158
2 3.75209 -11.7749 -4.02128
3 7.78057 -11.6813 -3.92477
1 11.5491 -11.5934 -3.84389
2 15.5248 -11.5529 -3.74842
3 18.9869 -11.2197 -3.76911
3 -19.1011 -7.54459 -3.74826
2 -15.4365 -7.65281 -3.9088
2 -11.6203 -7.66278 -3.86798
2 -7.72114 -7.84413 -3.76736
2 -4.03974 -7.78922 -4.0235
1 -0.200841 -7.77974 -4.10948
1 3.73849 -7.65424 -3.98143
1 7.63116 -7.6399 -4.20266
1 11.5293 -7.76928 -3.83441
2 15.3686 -7.6766 -3.82507
1 19.0771 -7.65993 -3.78963
2 -22.5334 -3.75352 -3.76887
1 -19.0679 -3.84981 -3.781
2 -15.2447 -3.72517 -4.02226
1 -11.6341 -3.86509 -3.99351
2 -7.75997 -3.85443 -4.05892
1 -4.02156 -4.01872 -4.11025
2 -0.26641 -3.59248 -4.08448
2 3.81539 -3.9883 -4.14929
1 7.83004 -3.91977 -3.93062
2 11.3485 -3.66735 -3.8388
2 15.4963 -3.67404 -3.68421
2 19.2007 -3.70968 -3.65207
1 22.8293 -3.83797 -3.75965
3 -22.6203 -0.253387 -3.8023
3 -18.9767 0.0758093 -3.79639
1 -15.2962 0.234714 -3.99288
2 -11.5922 -0.00992913 -4.10441
1 -7.67933 0.0158058 -4.03788
2 -3.95492 -0.0515424 -3.91271
2 -0.191008 0.0356422 -3.9497
2 3.69369 -0.147978 -4.02901
2 7.59444 -0.0318388 -3.99672
1 11.5814 0.00592369 -3.85857
1 15.3578 0.0769139 -3.83705
2 19.2394 0.111889 -3.80358
2 22.9685 0.148344 -3.67123
3 -22.7832 4.19511 -4.17095
1 -19.1946 4.04171 -4.04362
2 -15.3415 4.00813 -3.82885
2 -11.4765 3.85382 -3.95209
2 -7.65316 3.98636 -4.12166
2 -3.86723 3.92423 -4.0201
2 -0.12727 3.76725 -4.21558
1 3.65171 3.84701 -3.98784
2 7.51357 3.91489 -3.9485
1 11.415 3.93183 -3.91629
2 15.2428 3.87354 -3.9444
2 19.0829 3.99326 -3.86015
3 22.7547 3.9795 -3.80622
1 -19.1084 7.62386 -3.8708
2 -15.2894 7.79864 -3.86795
2 -11.4997 7.89072 -3.94206
2 -7.63895 8.0041 -3.90465
2 -3.80694 7.83483 -4.14287
2 -0.19938 7.76458 -4.18691
2 3.60889 7.77231 -4.10799
3 7.56753 7.62428 -3.96927
3 11.5259 7.61118 -3.93406
2 15.3072 7.67109 -3.85681
2 18.9136 7.67236 -3.96133
1 -19.456 12.0751 -4.03421
3 -15.4617 11.7082 -3.79894
1 -11.5068 11.6935 -3.87866
1 -7.68344 11.7088 -4.05615
3 -3.84504 11.7432 -3.96246
1 -0.163549 11.6835 -4.03695
2 3.75684 11.5344 -4.10715
2 7.37175 11.542 -3.98909
2 11.5224 11.3953 -3.88424
2 15.1964 11.5325 -3.87564
3 18.8141 11.6008 -4.11248
2 -15.3006 15.4862 -3.82738
2 -11.4953 15.4245 -4.05866
2 -7.71628 15.5138 -3.83224
2 -3.87349 15.6531 -3.86919
2 -0.151389 15.5168 -3.85541
1 3.75154 15.5018 -3.93446
2 7.47594 15.3383 -3.78181
2 11.5129 15.2983 -3.80762
1 15.1924 15.2656 -3.8554
3 -11.6615 19.0939 -3.45348
2 -7.79851 19.3805 -3.70244
3 -3.95743 19.2323 -3.8654
2 0.055147 19.356 -3.79228
2 3.904 19.0321 -4.03557
1 7.69329 18.9964 -3.90535
3 11.3354 18.7951 -3.77256
3 -3.911 22.8362 -3.68856
2 -0.188827 22.7994 -3.6098
3 4.0257 22.739 -3.95929
3 -7.39754 -23.0161 0.121318
3 -3.66739 -22.6859 0.222178
3 0.186995 -22.86 -0.169568
2 3.84671 -22.8939 0.233348
3 7.74628 -22.7391 0.243485
3 -11.6907 -19.0786 0.040478
3 -7.89135 -19.3233 0.231115
1 -3.86826 -19.3183 0.178252
3 0.0779395 -19.1923 0.0808131
3 3.76387 -19.239 0.132735
2 7.78938 -19.1904 0.297382
2 11.8008 -19.1011 0.310215
2 -15.467 -15.3108 0.153312
2 -11.6295 -15.3498 -0.0851179
2 -7.69503 -15.5426 -0.0110322
1 -3.96858 -15.5834 -0.102801
1 -0.0895722 -15.5079 -0.043385
1 3.75782 -15.482 -0.0636124
1 7.62548 -15.4754 -0.000856931
1 11.689 -15.3017 0.107905
3 15.4313 -15.0088 -0.105947
2 -19.5114 -11.4188 0.482652
2 -15.3332 -11.4782 0.186807
1 -11.5298 -11.5859 0.0754413
2 -7.66758 -11.5236 -0.0760993
1 -3.93602 -11.6722 -0.147485
1 -0.143993 -11.6156 -0.109556
1 3.82482 -11.6443 -0.240266
2 7.67908 -11.6052 0.0539606
3 11.5961 -11.5215 -0.119991
1 15.3646 -11.4392 0.0850487
3 19.0035 -11.3834 0.116606
3 -22.6566 -7.32904 0.13305
2 -19.0431 -7.78956 0.267688
2 -15.219 -7.707 0.0669521
2 -11.5674 -7.51713 -0.022177
2 -7.79174 -7.8065 -0.0575054
3 -3.954 -7.57977 -0.176944
1 -0.0876207 -7.62111 -0.214898
2 3.65734 -7.79789 -0.238282
2 7.65704 -7.80699 -0.331056
1 11.262 -7.76721 0.0112103
2 15.226 -7.57326 0.0511517
3 18.9825 -7.5932 0.0585614
3 22.8708 -7.73759 0.192559
2 -22.6719 -3.76053 0.302162
2 -19.0056 -3.78258 0.0976077
2 -15.3963 -3.96446 0.034752
2 -11.3813 -3.90528 -0.0939493
1 -7.74354 -3.97612 -0.138296
2 -3.92223 -3.95216 -0.146318
3 -0.0969562 -3.89147 -0.0275681
1 3.74492 -3.83029 0.0229221
2 7.58724 -3.77634 -0.16883
2 11.4668 -3.68757 -0.124838
2 15.3386 -3.65985 -0.0905257
1 19.1246 -3.82603 0.0465763
3 22.7736 -3.78802 0.289413
1 -22.6043 -0.00403193 0.125764
2 -18.8487 0.135806 0.231776
2 -15.2333 -0.0336511 0.0372374
1 -11.3515 0.108104 -0.155953
2 -7.65738 -0.149703 -0.134391
1 -3.85082 0.104645 -0.0218503
2 -0.0485393 0.0123504 -0.171335
1 3.82898 -0.0947533 -0.191945
2 7.72659 0.0717935 0.0129468
3 11.4181 0.148595 -0.0945613
2 15.295 0.170108 -0.0861191
1 19.1438 0.0487083 0.0726436
2 22.7658 0.146992 0.0609336
3 -22.5761 3.8324 0.00932444
2 -18.8793 4.00273 0.0174756
1 -15.2281 3.93924 -0.0881397
1 -11.3587 4.0545 -0.20127
3 -7.65041 3.90786 -0.17956
2 -3.88534 3.96345 -0.0707108
2 -0.0283944 3.97369 -0.125552
2 3.74499 3.75058 -0.272343
2 7.60564 3.86995 -0.218368
2 11.5407 3.88019 -0.0600394
2 15.3785 3.8675 -0.143432
2 19.153 3.86253 0.126059
3 22.665 3.51905 0.17045
3 -22.5879 7.69986 0.163362
2 -19.0598 7.73026 -0.083928
2 -15.1935 7.64355 -0.0709397
2 -11.3283 7.55827 -0.115471
2 -7.50569 7.86206 -0.116001
2 -3.73928 7.92034 -0.0191202
1 -0.040845 7.79754 -0.137816
1 3.91443 7.7484 -0.0750587
2 7.59799 7.74009 -0.0745239
2 11.4165 7.81601 0.0182142
2 15.3604 7.59759 0.0189113
1 19.3398 7.54443 0.0190896
3 22.7905 7.3686 0.0896855
3 -19.0989 11.6195 -0.0983556
1 -15.1534 11.531 0.0609357
1 -11.3879 11.5344 -0.0550851
2 -7.44902 11.6252 -0.0454689
1 -3.69021 11.6396 -0.0750666
2 -0.0273596 11.5842 -0.077633
3 3.67467 11.6055 0.000677945
2 7.88709 11.394 0.0809596
1 11.5943 11.5214 -0.0472164
2 15.4314 11.5742 0.0740183
3 19.1751 11.4235 -0.0902545
2 -15.4976 15.2756 0.10809
1 -11.4513 15.4217 0.120418
1 -7.61265 15.3897 0.0299333
2 -3.86169 15.536 0.122578
1 -0.104475 15.4618 -0.140976
2 3.76586 15.3616 -0.116682
1 7.54925 15.3339 0.0270898
3 11.4679 15.2787 -0.0242724
3 15.1209 15.1484 0.00108544
3 -11.4849 19.0459 0.187015
2 -7.61732 19.325 0.0722042
1 -3.96297 19.2209 0.20626
1 -0.0832892 19.0714 0.125367
2 3.88204 19.0322 0.161214
2 7.63699 19.0905 -0.182178
2 11.5774 19.322 -0.0370263
3 -7.54114 22.7692 0.49525
3 -3.99968 22.8579 0.111009
3 -0.111094 22.7783 0.0330416
3 4.00098 22.7496 -0.0540936
3 7.64122 22.4934 0.126955
1 -3.94009 -22.477 4.56523
3 0.00732263 -22.9537 3.91342
3 4.03561 -22.6662 3.77905
2 -11.6933 -18.8691 3.9901
1 -7.98954 -19.2551 3.80047
1 -3.76795 -19.2833 3.90872
1 0.123451 -19.2261 3.87398
2 3.9536 -19.3082 3.86353
3 7.77988 -19.0991 3.83957
3 11.4369 -19.1351 3.80763
1 -15.4855 -15.2653 4.08413
2 -11.6317 -15.3772 3.96264
1 -7.92271 -15.424 3.73177
2 -3.82026 -15.3272 3.75342
2 -0.0516256 -15.2569 3.89903
1 3.77752 -15.4465 3.94526
2 7.62302 -15.2826 3.87851
2 11.6415 -15.2945 4.04561
3 15.4701 -15.2879 4.06389
3 -18.8987 -11.3784 4.08194
1 -15.3131 -11.5488 3.95279
2 -11.5201 -11.4442 3.88887
1 -7.85271 -11.5025 3.77893
2 -3.89334 -11.6147 3.77909
1 -0.216082 -11.389 3.72941
3 3.67902 -11.4936 3.68844
2 7.6463 -11.7568 3.61645
2 11.5169 -11.5519 3.79596
3 15.2961 -11.4985 3.85849
3 19.1211 -11.4092 4.09536
3 -19.0057 -7.42945 4.06313
2 -15.095 -7.68038 3.9649
1 -11.4085 -7.60516 3.84206
1 -7.74437 -7.59647 3.93818
2 -3.9135 -7.55175 3.88218
2 0.0475494 -7.7793 3.71481
2 3.85681 -7.77612 3.76266
3 7.67039 -7.64476 3.87244
2 11.5083 -7.70161 3.71345
2 15.211 -7.62125 4.00892
2 18.9869 -7.7164 3.91235
3 -22.6275 -3.78734 3.98191
3 -18.8667 -3.69407 3.85164
1 -15.1538 -3.73585 3.77256
1 -11.4265 -3.77988 3.76999
2 -7.57606 -3.69495 3.68078
3 -3.7206 -3.87626 3.69298
1 -0.0318134 -3.78434 3.84744
1 3.81157 -3.89835 3.67272
2 7.73662 -3.95524 3.89802
2 11.3876 -3.61474 3.86785
2 15.431 -3.76255 3.99025
3 18.8943 -3.7663 3.96888
3 22.7271 -3.88428 3.89852
3 -22.4026 0.251067 3.77221
3 -19.014 0.136105 3.83984
2 -15.0582 -0.0529142 4.02582
1 -11.3041 0.111879 3.82447
1 -7.59626 -0.0167508 3.66122
2 -3.69906 0.0601309 3.8522
1 0.0217291 0.0612031 4.00403
1 3.75599 -0.0079546 3.86013
2 7.75616 0.105504 3.79716
2 11.2157 -0.0211089 3.86081
1 15.1582 0.109062 3.99605
1 19.0186 0.0357585 3.86579
3 22.714 0.139754 3.88241
2 -22.7583 3.89954 3.88578
2 -18.9456 3.77614 3.7164
1 -15.1963 4.06911 3.80134
2 -11.4718 3.89702 3.79367
1 -7.63381 3.89749 3.74251
1 -3.69739 4.01987 3.86162
2 -0.00654754 3.86168 3.95622
2 3.80902 3.92146 3.83272
2 7.54506 3.83635 3.75385
2 11.4244 3.75667 3.84899
2 15.366 3.93077 3.8419
1 19.1043 3.81938 3.79639
1 22.5185 3.61824 3.99858
2 -18.969 7.73428 4.06652
2 -15.1862 7.73048 3.79789
2 -11.4598 7.81958 3.94851
2 -7.71157 7.87253 3.91045
1 -3.79109 7.7708 3.89952
1 -0.0327219 7.79202 3.98954
2 3.86575 7.71374 3.93574
1 7.61293 7.50096 3.90997
1 11.4586 7.5893 3.77296
2 15.2538 7.81111 3.83407
2 19.0069 7.63911 3.95087
1 -19.1209 11.6806 4.21029
2 -15.2146 11.6085 3.91199
1 -11.3655 11.498 3.80844
1 -7.54547 11.6025 3.89546
2 -3.84628 11.6925 3.92944
1 0.265456 11.6182 3.89056
2 3.97184 11.5708 4.0251
2 7.74367 11.5337 3.96672
2 11.5073 11.3971 3.99936
2 15.2563 11.6345 3.97579
3 19.0816 11.5398 4.09436
2 -15.1845 15.1992 4.06335
1 -11.4442 15.3149 4.09153
2 -7.65378 15.3809 4.08082
2 -3.6865 15.3858 3.93447
2 -0.0824601 15.4087 3.78588
1 3.83114 15.3912 3.95383
1 7.71746 15.3366 3.9195
3 11.4762 15.3607 3.87088
2 15.2833 15.2247 4.06976
3 -11.4733 19.0848 4.04442
1 -7.66826 19.2104 3.98523
1 -3.91155 19.2394 3.99836
2 0.000681452 19.189 3.89606
1 3.79315 19.1359 3.72683
2 7.70329 19.0945 3.89709
2 11.6625 19.002 4.10672
1 -3.74138 22.7171 4.02718
2 0.0439194 22.6725 3.90347
3 4.04788 22.7317 4.02073
3 0.0642354 -22.6735 7.73516
3 -11.5032 -18.8745 7.8394
3 -7.7489 -19.1278 7.57323
3 -3.91417 -19.1601 7.5514
2 0.0617123 -19.1618 7.75079
2 3.90057 -19.1945 7.76765
2 7.72466 -19.2017 7.56368
2 11.4202 -18.9056 7.77849
2 -15.363 -15.1791 8.04842
2 -11.6362 -15.1687 7.63024
2 -7.54852 -15.3852 7.5999
1 -3.88597 -15.3954 7.58571
2 -0.0509601 -15.2371 7.5933
2 3.78067 -15.3297 7.68784
1 7.55787 -15.3341 7.65778
1 11.4123 -15.2554 7.72031
2 15.4306 -15.2652 7.98368
3 -18.9748 -11.2637 7.7908
1 -15.2087 -11.5199 7.83179
1 -11.501 -11.66 7.73331
1 -7.7079 -11.3408 7.71921
3 -3.88242 -11.441 7.72917
2 0.12139 -11.4937 7.63687
2 3.82343 -11.5766 7.5936
2 7.71311 -11.5386 7.72722
2 11.2833 -11.5913 7.83003
1 15.2399 -11.551 7.77665
1 18.767 -11.2669 7.84969
1 -18.8796 -7.57529 7.74955
2 -15.2282 -7.5879 7.77131
1 -11.4376 -7.73426 7.60539
3 -7.65511 -7.7101 7.73941
2 -3.85657 -7.77549 7.78965
1 -0.0650863 -7.60569 7.66084
3 3.84884 -7.60371 7.50641
2 7.68812 -7.7087 7.70213
2 11.3475 -7.49508 7.66975
3 15.0457 -7.575 7.8665
3 19.0083 -7.41984 7.96577
3 -18.9474 -3.69056 7.82817
2 -15.069 -3.64087 7.9071
1 -11.3696 -3.76403 7.70491
2 -7.55615 -3.81648 7.84681
2 -3.80351 -3.82537 7.82964
2 -0.0732188 -3.71892 7.72222
2 3.89601 -3.77287 7.67085
3 7.49243 -3.7407 7.64954
2 11.4029 -3.76204 7.66363
3 15.1584 -3.86277 7.90919
1 18.8698 -3.73902 7.90411
3 -22.2571 0.320875 7.90107
1 -18.8622 0.214967 7.91445
1 -15.2903 0.162181 7.74287
1 -11.3815 0.110807 7.77151
2 -7.53591 0.0660773 7.76275
2 -3.82818 -0.0113764 7.70034
1 -0.0225252 -0.0795867 7.81079
1 3.84876 -0.0201162 7.77217
3 7.55925 -0.0453657 7.83339
2 11.4031 0.0824102 7.82869
1 15.1985 0.122707 7.79854
2 18.9154 -0.0240779 7.69487
3 22.5739 -0.244386 7.63305
2 -18.9856 3.9861 7.7398
2 -15.0672 4.02938 7.86941
1 -11.3023 3.89476 7.87875
2 -7.49389 3.8101 7.78556
2 -3.82739 3.85031 7.88402
2 -0.0293864 3.88265 7.9945
2 3.74983 3.77669 7.73635
1 7.60067 3.89344 7.82701
1 11.4955 3.75654 7.70093
1 15.2836 3.82096 7.72383
3 18.8938 3.82054 7.68811
2 -19.0394 7.54902 7.66769
1 -15.2384 7.69584 7.84339
2 -11.4101 7.79474 7.86781
1 -7.61003 7.91519 7.72847
2 -3.75873 7.79728 7.99924
2 0.0151229 7.66621 7.753
1 3.74207 7.62804 7.80018
2 7.73092 7.72081 7.81889
1 11.4484 7.70662 7.61331
2 15.203 7.67558 7.61723
1 18.9772 7.52813 7.73798
3 -18.6886 11.4312 7.93006
2 -15.2325 11.3253 7.82661
1 -11.4821 11.4526 7.79344
3 -7.78694 11.475 7.97925
1 -3.87545 11.6333 8.03947
2 0.0413024 11.587 7.82514
2 3.92408 11.3861 7.97223
1 7.64843 11.3422 7.96744
2 11.5665 11.5563 7.82141
2 15.2502 11.5014 7.74628
3 18.8113 11.2211 7.85263
3 -15.0529 14.9897 7.89488
2 -11.4855 15.386 7.92893
2 -7.53784 15.4323 8.03269
3 -3.82745 15.4426 7.92566
1 0.121072 15.3916 7.93418
2 3.95609 15.1856 7.68593
2 7.69062 15.2809 7.78505
3 11.4011 15.1126 7.87793
2 15.4106 15.2699 8.34866
2 -11.5621 18.8865 8.20092
1 -7.58009 19.3021 7.89375
2 -3.68607 19.2292 7.71788
3 0.0820346 19.0485 7.83985
1 3.95037 19.084 7.82853
3 7.87387 19.0545 7.87321
3 11.2838 18.9095 8.1819
3 -0.0630677 22.6243 7.53207
3 -7.64659 -19.0695 11.4607
3 -3.82389 -19.1638 11.434
1 0.0412336 -19.0043 11.4726
1 3.96457 -19.0477 11.4766
2 7.68858 -19.1427 11.669
3 -11.2954 -15.1787 11.7553
1 -7.71698 -15.2621 11.5581
3 -3.82653 -15.4611 11.3939
3 -0.026857 -15.3677 11.5653
3 3.78796 -15.4027 11.5402
3 7.54418 -15.2821 11.5455
3 11.5002 -15.1372 11.5677
3 -15.1711 -11.434 11.6266
3 -11.2681 -11.3555 11.6824
1 -7.67495 -11.5098 11.7201
1 -3.98635 -11.4222 11.5678
1 0.0520986 -11.57 11.4801
1 3.9075 -11.5364 11.5263
1 7.54179 -11.6436 11.6607
2 11.435 -11.4642 11.6323
2 15.1198 -11.4584 11.7069
3 -18.8976 -7.54421 11.4111
3 -15.2177 -7.68046 11.5627
2 -11.4882 -7.62312 11.6628
2 -7.62232 -7.51282 11.5313
1 -3.71285 -7.60545 11.6705
1 0.064007 -7.71306 11.7187
1 3.71817 -7.61383 11.4918
2 7.44257 -7.63079 11.9336
3 11.3571 -7.62279 11.7424
3 15.0838 -7.64927 11.4883
3 18.8018 -7.6132 11.527
1 -18.97 -4.00427 11.7426
2 -15.3423 -3.79469 11.6859
2 -11.3764 -3.73768 11.8015
2 -7.55675 -3.81689 11.8293
1 -3.77153 -3.73578 11.6692
3 0.0380578 -3.72324 11.7061
1 3.97005 -3.86874 11.688
2 7.61312 -3.63735 11.8988
3 11.2756 -3.83315 11.8056
2 15.1825 -3.8537 11.6566
2 19.0471 -3.8609 11.6617
3 -18.9942 -0.0760695 11.6135
1 -15.231 0.0141944 11.7808
1 -11.5205 0.151598 11.5741
2 -7.68973 0.164799 11.6832
2 -3.8733 -0.205488 11.6806
2 -0.0385392 -0.00969999 11.8334
2 3.76291 0.127622 11.65
2 7.83814 -0.00382227 11.7625
2 11.3577 0.0967225 11.7217
2 15.3213 0.0376673 11.6313
3 18.9216 0.0704166 11.4512
3 -18.9918 3.99555 11.6999
2 -15.358 3.82279 11.5834
1 -11.425 3.87513 11.7849
2 -7.65958 3.86678 11.8281
3 -3.86802 3.79859 11.8405
2 0.149598 3.69159 11.7638
2 3.8062 3.8321 11.8115
1 7.67155 3.86363 11.6763
2 11.3671 3.69046 11.6591
2 15.1779 3.92183 11.6553
2 19.018 3.94865 11.7629
3 -18.8946 7.7087 11.4427
3 -15.1019 7.75416 11.7017
2 -11.3241 7.58705 11.6972
3 -7.52324 7.688 11.8001
2 -3.78566 7.66687 12.0054
2 0.0390378 7.66333 11.8891
1 3.8577 7.59848 11.7241
1 7.83231 7.6153 11.6613
2 11.6105 7.60407 11.6102
1 15.1589 7.52263 11.5459
3 18.8641 7.51245 11.4672
3 -15.2329 11.4796 11.7779
2 -11.3991 11.3812 11.6929
2 -7.61499 11.5314 11.7728
2 -3.74558 11.6135 11.8504
1 -0.0985748 11.4899 11.8092
1 3.84057 11.5624 11.8194
1 7.72602 11.421 11.8914
2 11.5465 11.4676 11.8674
3 15.2103 11.2666 11.5871
2 -11.8367 15.4051 12.0833
1 -7.68131 15.2939 11.8454
1 -3.6485 15.4144 11.981
2 -0.0404497 15.5025 11.9392
2 3.90128 15.3323 11.8094
3 7.71359 15.2012 11.6811
2 11.7334 15.3652 12.2609
2 -7.79046 19.0302 11.8707
1 -3.94513 19.209 11.8978
1 0.0341744 19.2957 11.8236
1 3.85781 19.0718 11.6622
3 7.68804 18.9651 11.6019
3 -7.57738 -15.1373 15.2581
3 -3.80849 -15.4794 15.409
3 -0.0299076 -15.3694 15.1557
3 3.74766 -15.2357 15.3332
3 7.61289 -15.3451 15.2899
2 -11.4544 -11.6241 15.4425
2 -7.51594 -11.5197 15.5424
2 -3.89901 -11.7481 15.5249
2 -0.181129 -11.6061 15.3051
1 3.77998 -11.6913 15.4448
3 7.71238 -11.5163 15.4672
3 11.4951 -11.5913 15.4688
3 -15.0684 -7.61013 15.326
1 -11.4873 -7.73607 15.5365
1 -7.53551 -7.78215 15.559
3 -3.82711 -7.68989 15.4885
2 -0.154988 -7.98667 15.457
2 3.7468 -7.84613 15.4741
1 7.62653 -7.62338 15.7532
2 11.4145 -7.83441 15.4738
3 15.3711 -7.75735 15.2772
3 -15.474 -3.86759 15.6093
2 -11.4573 -3.94877 15.5845
2 -7.64383 -3.99615 15.6004
2 -3.76441 -3.88201 15.5523
1 0.0235645 -3.99567 15.5115
3 3.81353 -3.90399 15.6307
3 7.62507 -3.95224 15.7766
2 11.4527 -3.92552 15.6743
1 15.1127 -3.87846 15.5909
2 -15.2532 0.0200101 15.4486
3 -11.6663 0.00931817 15.4912
2 -7.62649 -0.0896194 15.5872
2 -3.85748 -0.0911365 15.6762
2 -0.125853 0.0591381 15.5356
3 3.78892 -0.0884021 15.7607
2 7.5941 -0.211811 15.7952
1 11.4255 -0.174617 15.6223
2 15.049 -0.161355 15.5379
1 -15.3924 3.90458 15.3832
2 -11.6633 3.7924 15.4417
2 -7.72923 3.7863 15.6017
3 -3.90424 3.7349 15.6244
1 0.162675 3.66421 15.8404
2 3.87488 3.61756 15.7443
1 7.66411 3.70116 15.7709
2 11.4096 3.83428 15.8037
3 15.3023 3.85671 15.5285
1 -15.1945 7.7561 15.3542
3 -11.547 7.44152 15.5879
2 -7.68471 7.67391 15.6172
2 -3.68424 7.59687 15.6835
2 0.0985016 7.69608 15.8453
2 3.74462 7.66274 15.6464
3 7.69836 7.58984 15.6979
2 11.4429 7.88485 15.7296
2 15.2417 7.67196 15.379
3 -11.4591 11.293 15.5588
2 -7.69058 11.5024 15.6393
2 -3.81138 11.5683 15.7631
3 0.0687133 11.548 15.6733
3 3.80829 11.539 15.4806
3 7.66838 11.5478 15.5379
3 11.3102 11.4058 15.7579
2 -8.20814 15.6129 15.9503
1 -3.6562 15.6984 16.0327
2 -0.141067 15.3077 15.7094
2 3.94182 15.4943 15.4481
3 7.53053 15.3168 15.3958
2 -7.70393 -11.6221 19.1183
3 -3.85387 -11.5817 18.9739
3 -0.109917 -11.8212 19.12
3 3.66518 -11.5749 18.9536
2 7.65049 -11.5098 19.1504
2 -11.5084 -7.81592 19.2679
2 -7.53807 -7.80305 19.2922
2 -3.85746 -7.86812 19.2035
1 -0.103955 -7.91855 19.3005
1 3.74613 -7.98338 19.3836
3 7.79267 -7.66516 19.3343
3 11.5492 -8.00274 19.1367
3 -11.6322 -3.93822 19.3748
2 -7.70025 -4.07076 19.2525
3 -3.7334 -4.02493 19.2749
2 -0.0769001 -4.2044 19.5104
2 3.97639 -4.02841 19.4663
2 7.72758 -3.87818 19.5052
2 11.6173 -4.25301 19.4007
2 -11.6172 0.0807615 19.2567
2 -7.9116 0.0794608 19.254
1 -3.94335 -0.0639516 19.5895
3 0.0790448 -0.0896262 19.525
1 3.8535 0.0210815 19.881
2 7.86234 -0.170424 19.4005
1 11.4299 -0.125138 19.558
2 -11.5592 3.70732 19.1709
1 -7.89881 3.73186 19.3501
2 -4.01215 3.77622 19.3628
1 -0.0586054 3.71486 19.6226
2 3.97102 3.74986 19.606
2 7.73106 3.89411 19.5353
1 11.6075 3.90314 19.2365
3 -11.4221 7.52365 19.2907
3 -7.76966 7.7098 19.2966
2 -3.9281 7.57599 19.4556
2 0.0497834 7.72999 19.7594
2 3.62212 7.80262 19.4312
3 7.60849 7.57854 19.365
3 11.3903 7.87086 19.3204
2 -7.92668 11.5232 19.2796
1 -4.02796 11.6693 19.2628
1 -0.107845 11.6448 19.5525
3 3.85724 11.4324 19.2543
1 7.63672 11.4233 19.3041
3 -0.0633377 -8.05528 22.7863
2 -4.0314 -4.03988 23.0704
3 -0.0858302 -4.18958 23.1487
1 3.78375 -4.08433 22.8983
3 -7.477 -0.0390913 22.833
1 -4.15084 0.017674 22.8267
3 -0.170983 -0.264311 23.4293
1 3.96362 -0.124276 22.9376
3 7.74399 0.00540164 23.2455
3 -4.35648 3.73694 23.007
3 -0.290588 3.63713 23.4135
3 4.00167 4.23127 23.1448
1 -0.020102 7.53666 23.2944
2 -5.58152 -6.10851 -22.9957
3 -1.91466 -6.21567 -22.9351
3 1.91987 -6.17988 -23.0904
3 5.77948 -6.14084 -22.8701
3 -5.83426 -1.80298 -23.0478
2 -2.09972 -2.13974 -23.061
3 2.25327 -2.17051 -22.9289
2 5.64493 -2.13806 -22.9784
3 -5.7527 1.87963 -22.8206
3 -2.0455 1.73465 -23.1166
3 1.82082 1.81576 -23.0285
3 5.79633 1.74151 -23.0613
2 -5.71563 5.72339 -22.8722
3 -1.86899 5.79856 -23.0574
2 1.90367 5.73652 -23.0359
3 5.71678 5.79482 -22.7916
3 -5.82887 -13.7996 -18.9235
3 -1.9722 -13.5969 -19.1224
3 2.00318 -13.751 -19.1121
3 6.25862 -13.5331 -18.9177
2 -9.55844 -9.97365 -19.0725
1 -5.83605 -10.3906 -19.5982
2 -2.00249 -9.86937 -19.21
2 1.95423 -9.85447 -19.2501
1 5.70063 -10.2436 -19.3316
1 9.99634 -10.0419 -18.9634
3 -13.3633 -6.28854 -19.0405
2 -9.7418 -5.83072 -19.4198
1 -5.72915 -5.70915 -19.4749
2 -1.69417 -5.86359 -19.4213
3 1.97444 -6.15933 -19.324
1 5.56659 -6.0547 -19.2719
2 9.65832 -5.88797 -19.2133