LAMMPS DATA FOR MEAM SIMULATION

   4321   atoms
      3   atom types

  -33.55   33.55   xlo xhi
  -33.55   33.55   ylo yhi
  -33.55   33.55   zlo zhi

 Atoms

     1   2     0.00000    -7.84889   -23.54666
     2   3    -3.92444    -3.92444   -23.54666
     3   2     0.00000    -3.92444   -23.54666
     4   2     3.92444    -3.92444   -23.54666
     5   1    -7.84889     0.00000   -23.54666
     6   3    -3.92444     0.00000   -23.54666
     7   3     0.00000     0.00000   -23.54666
     8   1     3.92444     0.00000   -23.54666
     9   2     7.84889     0.00000   -23.54666
    10   1    -3.92444     3.92444   -23.54666
    11   1     0.00000     3.92444   -23.54666
    12   3     3.92444     3.92444   -23.54666
    13   2     0.00000     7.84889   -23.54666
    14   3    -7.84889   -11.77333   -19.62221
    15   1    -3.92444   -11.77333   -19.62221
    16   1     0.00000   -11.77333   -19.62221
    17   2     3.92444   -11.77333   -19.62221
    18   1     7.84889   -11.77333   -19.62221
    19   3   -11.77333    -7.84889   -19.62221
    20   3    -7.84889    -7.84889   -19.62221
    21   2    -3.92444    -7.84889   -19.62221
    22   3     0.00000    -7.84889   -19.62221
    23   2     3.92444    -7.84889   -19.62221
    24   1     7.84889    -7.84889   -19.62221
    25   1    11.77333    -7.84889   -19.62221
    26   3   -11.77333    -3.92444   -19.62221
    27   3    -7.84889    -3.92444   -19.62221
    28   1    -3.92444    -3.92444   -19.62221
    29   3     0.00000    -3.92444   -19.62221
    30   3     3.92444    -3.92444   -19.62221
    31   1     7.84889    -3.92444   -19.62221
    32   3    11.77333    -3.92444   -19.62221
    33   2   -11.77333     0.00000   -19.62221
    34   2    -7.84889     0.00000   -19.62221
    35   1    -3.92444     0.00000   -19.62221
    36   3     0.00000     0.00000   -19.62221
    37   2     3.92444     0.00000   -19.62221
    38   2     7.84889     0.00000   -19.62221
    39   1    11.77333     0.00000   -19.62221
    40   3   -11.77333     3.92444   -19.62221
    41   3    -7.84889     3.92444   -19.62221
    42   2    -3.92444     3.92444   -19.62221
    43   2     0.00000     3.92444   -19.62221
    44   2     3.92444     3.92444   -19.62221
    45   2     7.84889     3.92444   -19.62221
    46   1    11.77333     3.92444   -19.62221
    47   1   -11.77333     7.84889   -19.62221
    48   2    -7.84889     7.84889   -19.62221
    49   2    -3.92444     7.84889   -19.62221
    50   2     0.00000     7.84889   -19.62221
    51   2     3.92444     7.84889   -19.62221
    52   3     7.84889     7.84889   -19.62221
    53   3    11.77333     7.84889   -19.62221
    54   2    -7.84889    11.77333   -19.62221
    55   3    -3.92444    11.77333   -19.62221
    56   1     0.00000    11.77333   -19.62221
    57   1     3.92444    11.77333   -19.62221
    58   2     7.84889    11.77333   -19.62221
    59   3    -7.84889   -15.69777   -15.69777
    60   2    -3.92444   -15.69777   -15.69777
    61   2     0.00000   -15.69777   -15.69777
    62   1     3.92444   -15.69777   -15.69777
    63   3     7.84889   -15.69777   -15.69777
    64   1   -11.77333   -11.77333   -15.69777
    65   1    -7.84889   -11.77333   -15.69777
    66   1    -3.92444   -11.77333   -15.69777
    67   3     0.00000   -11.77333   -15.69777
    68   3     3.92444   -11.77333   -15.69777
    69   1     7.84889   -11.77333   -15.69777
    70   1    11.77333   -11.77333   -15.69777
    71   2   -15.69777    -7.84889   -15.69777
    72   2   -11.77333    -7.84889   -15.69777
    73   1    -7.84889    -7.84889   -15.69777
    74   1    -3.92444    -7.84889   -15.69777
    75   2     0.00000    -7.84889   -15.69777
    76   3     3.92444    -7.84889   -15.69777
    77   3     7.84889    -7.84889   -15.69777
    78   1    11.77333    -7.84889   -15.69777
    79   2    15.69777    -7.84889   -15.69777
    80   1   -15.69777    -3.92444   -15.69777
    81   2   -11.77333    -3.92444   -15.69777
    82   3    -7.84889    -3.92444   -15.69777
    83   3    -3.92444    -3.92444   -15.69777
    84   3     0.00000    -3.92444   -15.69777
    85   3     3.92444    -3.92444   -15.69777
    86   2     7.84889    -3.92444   -15.69777
    87   3    11.77333    -3.92444   -15.69777
    88   2    15.69777    -3.92444   -15.69777
    89   1   -15.69777     0.00000   -15.69777
    90   2   -11.77333     0.00000   -15.69777
    91   1    -7.84889     0.00000   -15.69777
    92   1    -3.92444     0.00000   -15.69777
    93   3     0.00000     0.00000   -15.69777
    94   2     3.92444     0.00000   -15.69777
    95   1     7.84889     0.00000   -15.69777
    96   3    11.77333     0.00000   -15.69777
    97   2    15.69777     0.00000   -15.69777
    98   2   -15.69777     3.92444   -15.69777
    99   1   -11.77333     3.92444   -15.69777
   100   2    -7.84889     3.92444   -15.69777
   101   2    -3.92444     3.92444   -15.69777
   102   3     0.00000     3.92444   -15.69777
   103   3     3.92444     3.92444   -15.69777
   104   3     7.84889     3.92444   -15.69777
   105   3    11.77333     3.92444   -15.69777
   106   1    15.69777     3.92444   -15.69777
   107   3   -15.69777     7.84889   -15.69777
   108   2   -11.77333     7.84889   -15.69777
   109   3    -7.84889     7.84889   -15.69777
   110   3    -3.92444     7.84889   -15.69777
   111   1     0.00000     7.84889   -15.69777
   112   2     3.92444     7.84889   -15.69777
   113   2     7.84889     7.84889   -15.69777
   114   1    11.77333     7.84889   -15.69777
   115   3    15.69777     7.84889   -15.69777
   116   1   -11.77333    11.77333   -15.69777
   117   3    -7.84889    11.77333   -15.69777
   118   2    -3.92444    11.77333   -15.69777
   119   2     0.00000    11.77333   -15.69777
   120   3     3.92444    11.77333   -15.69777
   121   2     7.84889    11.77333   -15.69777
   122   1    11.77333    11.77333   -15.69777
   123   2    -7.84889    15.69777   -15.69777
   124   3    -3.92444    15.69777   -15.69777
   125   2     0.00000    15.69777   -15.69777
   126   2     3.92444    15.69777   -15.69777
   127   1     7.84889    15.69777   -15.69777
   128   3    -7.84889   -19.62221   -11.77333
   129   3    -3.92444   -19.62221   -11.77333
   130   2     0.00000   -19.62221   -11.77333
   131   1     3.92444   -19.62221   -11.77333
   132   2     7.84889   -19.62221   -11.77333
   133   3   -11.77333   -15.69777   -11.77333
   134   1    -7.84889   -15.69777   -11.77333
   135   1    -3.92444   -15.69777   -11.77333
   136   2     0.00000   -15.69777   -11.77333
   137   2     3.92444   -15.69777   -11.77333
   138   2     7.84889   -15.69777   -11.77333
   139   2    11.77333   -15.69777   -11.77333
   140   3   -15.69777   -11.77333   -11.77333
   141   2   -11.77333   -11.77333   -11.77333
   142   2    -7.84889   -11.77333   -11.77333
   143   1    -3.92444   -11.77333   -11.77333
   144   1     0.00000   -11.77333   -11.77333
   145   3     3.92444   -11.77333   -11.77333
   146   2     7.84889   -11.77333   -11.77333
   147   2    11.77333   -11.77333   -11.77333
   148   2    15.69777   -11.77333   -11.77333
   149   3   -19.62221    -7.84889   -11.77333
   150   3   -15.69777    -7.84889   -11.77333
   151   3   -11.77333    -7.84889   -11.77333
   152   2    -7.84889    -7.84889   -11.77333
   153   1    -3.92444    -7.84889   -11.77333
   154   2     0.00000    -7.84889   -11.77333
   155   3     3.92444    -7.84889   -11.77333
   156   3     7.84889    -7.84889   -11.77333
   157   1    11.77333    -7.84889   -11.77333
   158   3    15.69777    -7.84889   -11.77333
   159   3    19.62221    -7.84889   -11.77333
   160   2   -19.62221    -3.92444   -11.77333
   161   2   -15.69777    -3.92444   -11.77333
   162   2   -11.77333    -3.92444   -11.77333
   163   2    -7.84889    -3.92444   -11.77333
   164   2    -3.92444    -3.92444   -11.77333
   165   3     0.00000    -3.92444   -11.77333
   166   2     3.92444    -3.92444   -11.77333
   167   2     7.84889    -3.92444   -11.77333
   168   2    11.77333    -3.92444   -11.77333
   169   2    15.69777    -3.92444   -11.77333
   170   1    19.62221    -3.92444   -11.77333
   171   3   -19.62221     0.00000   -11.77333
   172   2   -15.69777     0.00000   -11.77333
   173   2   -11.77333     0.00000   -11.77333
   174   2    -7.84889     0.00000   -11.77333
   175   3    -3.92444     0.00000   -11.77333
   176   2     0.00000     0.00000   -11.77333
   177   3     3.92444     0.00000   -11.77333
   178   2     7.84889     0.00000   -11.77333
   179   2    11.77333     0.00000   -11.77333
   180   3    15.69777     0.00000   -11.77333
   181   1    19.62221     0.00000   -11.77333
   182   3   -19.62221     3.92444   -11.77333
   183   1   -15.69777     3.92444   -11.77333
   184   1   -11.77333     3.92444   -11.77333
   185   3    -7.84889     3.92444   -11.77333
   186   3    -3.92444     3.92444   -11.77333
   187   1     0.00000     3.92444   -11.77333
   188   3     3.92444     3.92444   -11.77333
   189   2     7.84889     3.92444   -11.77333
   190   3    11.77333     3.92444   -11.77333
   191   1    15.69777     3.92444   -11.77333
   192   1    19.62221     3.92444   -11.77333
   193   3   -19.62221     7.84889   -11.77333
   194   2   -15.69777     7.84889   -11.77333
   195   2   -11.77333     7.84889   -11.77333
   196   2    -7.84889     7.84889   -11.77333
   197   2    -3.92444     7.84889   -11.77333
   198   3     0.00000     7.84889   -11.77333
   199   3     3.92444     7.84889   -11.77333
   200   2     7.84889     7.84889   -11.77333
   201   1    11.77333     7.84889   -11.77333
   202   1    15.69777     7.84889   -11.77333
   203   2    19.62221     7.84889   -11.77333
   204   3   -15.69777    11.77333   -11.77333
   205   1   -11.77333    11.77333   -11.77333
   206   1    -7.84889    11.77333   -11.77333
   207   3    -3.92444    11.77333   -11.77333
   208   1     0.00000    11.77333   -11.77333
   209   3     3.92444    11.77333   -11.77333
   210   2     7.84889    11.77333   -11.77333
   211   3    11.77333    11.77333   -11.77333
   212   1    15.69777    11.77333   -11.77333
   213   2   -11.77333    15.69777   -11.77333
   214   1    -7.84889    15.69777   -11.77333
   215   2    -3.92444    15.69777   -11.77333
   216   2     0.00000    15.69777   -11.77333
   217   2     3.92444    15.69777   -11.77333
   218   2     7.84889    15.69777   -11.77333
   219   2    11.77333    15.69777   -11.77333
   220   3    -7.84889    19.62221   -11.77333
   221   3    -3.92444    19.62221   -11.77333
   222   3     0.00000    19.62221   -11.77333
   223   3     3.92444    19.62221   -11.77333
   224   3     7.84889    19.62221   -11.77333
   225   1     0.00000   -23.54666    -7.84889
   226   3   -11.77333   -19.62221    -7.84889
   227   3    -7.84889   -19.62221    -7.84889
   228   2    -3.92444   -19.62221    -7.84889
   229   2     0.00000   -19.62221    -7.84889
   230   2     3.92444   -19.62221    -7.84889
   231   2     7.84889   -19.62221    -7.84889
   232   2    11.77333   -19.62221    -7.84889
   233   2   -15.69777   -15.69777    -7.84889
   234   3   -11.77333   -15.69777    -7.84889
   235   3    -7.84889   -15.69777    -7.84889
   236   1    -3.92444   -15.69777    -7.84889
   237   2     0.00000   -15.69777    -7.84889
   238   2     3.92444   -15.69777    -7.84889
   239   3     7.84889   -15.69777    -7.84889
   240   3    11.77333   -15.69777    -7.84889
   241   2    15.69777   -15.69777    -7.84889
   242   2   -19.62221   -11.77333    -7.84889
   243   3   -15.69777   -11.77333    -7.84889
   244   2   -11.77333   -11.77333    -7.84889
   245   2    -7.84889   -11.77333    -7.84889
   246   2    -3.92444   -11.77333    -7.84889
   247   1     0.00000   -11.77333    -7.84889
   248   2     3.92444   -11.77333    -7.84889
   249   1     7.84889   -11.77333    -7.84889
   250   2    11.77333   -11.77333    -7.84889
   251   2    15.69777   -11.77333    -7.84889
   252   1    19.62221   -11.77333    -7.84889
   253   3   -19.62221    -7.84889    -7.84889
   254   2   -15.69777    -7.84889    -7.84889
   255   2   -11.77333    -7.84889    -7.84889
   256   2    -7.84889    -7.84889    -7.84889
   257   3    -3.92444    -7.84889    -7.84889
   258   2     0.00000    -7.84889    -7.84889
   259   1     3.92444    -7.84889    -7.84889
   260   2     7.84889    -7.84889    -7.84889
   261   1    11.77333    -7.84889    -7.84889
   262   1    15.69777    -7.84889    -7.84889
   263   3    19.62221    -7.84889    -7.84889
   264   2   -19.62221    -3.92444    -7.84889
   265   1   -15.69777    -3.92444    -7.84889
   266   1   -11.77333    -3.92444    -7.84889
   267   3    -7.84889    -3.92444    -7.84889
   268   1    -3.92444    -3.92444    -7.84889
   269   1     0.00000    -3.92444    -7.84889
   270   1     3.92444    -3.92444    -7.84889
   271   3     7.84889    -3.92444    -7.84889
   272   3    11.77333    -3.92444    -7.84889
   273   1    15.69777    -3.92444    -7.84889
   274   2    19.62221    -3.92444    -7.84889
   275   3   -23.54666     0.00000    -7.84889
   276   2   -19.62221     0.00000    -7.84889
   277   2   -15.69777     0.00000    -7.84889
   278   2   -11.77333     0.00000    -7.84889
   279   3    -7.84889     0.00000    -7.84889
   280   3    -3.92444     0.00000    -7.84889
   281   2     0.00000     0.00000    -7.84889
   282   2     3.92444     0.00000    -7.84889
   283   1     7.84889     0.00000    -7.84889
   284   1    11.77333     0.00000    -7.84889
   285   3    15.69777     0.00000    -7.84889
   286   2    19.62221     0.00000    -7.84889
   287   2    23.54666     0.00000    -7.84889
   288   3   -19.62221     3.92444    -7.84889
   289   2   -15.69777     3.92444    -7.84889
   290   3   -11.77333     3.92444    -7.84889
   291   2    -7.84889     3.92444    -7.84889
   292   2    -3.92444     3.92444    -7.84889
   293   2     0.00000     3.92444    -7.84889
   294   3     3.92444     3.92444    -7.84889
   295   1     7.84889     3.92444    -7.84889
   296   2    11.77333     3.92444    -7.84889
   297   2    15.69777     3.92444    -7.84889
   298   2    19.62221     3.92444    -7.84889
   299   1   -19.62221     7.84889    -7.84889
   300   2   -15.69777     7.84889    -7.84889
   301   2   -11.77333     7.84889    -7.84889
   302   3    -7.84889     7.84889    -7.84889
   303   1    -3.92444     7.84889    -7.84889
   304   1     0.00000     7.84889    -7.84889
   305   2     3.92444     7.84889    -7.84889
   306   2     7.84889     7.84889    -7.84889
   307   1    11.77333     7.84889    -7.84889
   308   2    15.69777     7.84889    -7.84889
   309   1    19.62221     7.84889    -7.84889
   310   2   -19.62221    11.77333    -7.84889
   311   3   -15.69777    11.77333    -7.84889
   312   2   -11.77333    11.77333    -7.84889
   313   2    -7.84889    11.77333    -7.84889
   314   2    -3.92444    11.77333    -7.84889
   315   3     0.00000    11.77333    -7.84889
   316   2     3.92444    11.77333    -7.84889
   317   3     7.84889    11.77333    -7.84889
   318   1    11.77333    11.77333    -7.84889
   319   3    15.69777    11.77333    -7.84889
   320   2    19.62221    11.77333    -7.84889
   321   2   -15.69777    15.69777    -7.84889
   322   3   -11.77333    15.69777    -7.84889
   323   1    -7.84889    15.69777    -7.84889
   324   2    -3.92444    15.69777    -7.84889
   325   3     0.00000    15.69777    -7.84889
   326   3     3.92444    15.69777    -7.84889
   327   2     7.84889    15.69777    -7.84889
   328   3    11.77333    15.69777    -7.84889
   329   2    15.69777    15.69777    -7.84889
   330   1   -11.77333    19.62221    -7.84889
   331   2    -7.84889    19.62221    -7.84889
   332   2    -3.92444    19.62221    -7.84889
   333   3     0.00000    19.62221    -7.84889
   334   1     3.92444    19.62221    -7.84889
   335   3     7.84889    19.62221    -7.84889
   336   1    11.77333    19.62221    -7.84889
   337   3     0.00000    23.54666    -7.84889
   338   1    -3.92444   -23.54666    -3.92444
   339   1     0.00000   -23.54666    -3.92444
   340   1     3.92444   -23.54666    -3.92444
   341   2   -11.77333   -19.62221    -3.92444
   342   3    -7.84889   -19.62221    -3.92444
   343   2    -3.92444   -19.62221    -3.92444
   344   3     0.00000   -19.62221    -3.92444
   345   2     3.92444   -19.62221    -3.92444
   346   1     7.84889   -19.62221    -3.92444
   347   2    11.77333   -19.62221    -3.92444
   348   1   -15.69777   -15.69777    -3.92444
   349   2   -11.77333   -15.69777    -3.92444
   350   1    -7.84889   -15.69777    -3.92444
   351   1    -3.92444   -15.69777    -3.92444
   352   2     0.00000   -15.69777    -3.92444
   353   2     3.92444   -15.69777    -3.92444
   354   1     7.84889   -15.69777    -3.92444
   355   1    11.77333   -15.69777    -3.92444
   356   2    15.69777   -15.69777    -3.92444
   357   3   -19.62221   -11.77333    -3.92444
   358   3   -15.69777   -11.77333    -3.92444
   359   1   -11.77333   -11.77333    -3.92444
   360   1    -7.84889   -11.77333    -3.92444
   361   3    -3.92444   -11.77333    -3.92444
   362   3     0.00000   -11.77333    -3.92444
   363   1     3.92444   -11.77333    -3.92444
   364   2     7.84889   -11.77333    -3.92444
   365   3    11.77333   -11.77333    -3.92444
   366   3    15.69777   -11.77333    -3.92444
   367   2    19.62221   -11.77333    -3.92444
   368   3   -19.62221    -7.84889    -3.92444
   369   3   -15.69777    -7.84889    -3.92444
   370   2   -11.77333    -7.84889    -3.92444
   371   3    -7.84889    -7.84889    -3.92444
   372   1    -3.92444    -7.84889    -3.92444
   373   3     0.00000    -7.84889    -3.92444
   374   2     3.92444    -7.84889    -3.92444
   375   2     7.84889    -7.84889    -3.92444
   376   2    11.77333    -7.84889    -3.92444
   377   1    15.69777    -7.84889    -3.92444
   378   1    19.62221    -7.84889    -3.92444
   379   2   -23.54666    -3.92444    -3.92444
   380   1   -19.62221    -3.92444    -3.92444
   381   2   -15.69777    -3.92444    -3.92444
   382   1   -11.77333    -3.92444    -3.92444
   383   1    -7.84889    -3.92444    -3.92444
   384   2    -3.92444    -3.92444    -3.92444
   385   1     0.00000    -3.92444    -3.92444
   386   3     3.92444    -3.92444    -3.92444
   387   2     7.84889    -3.92444    -3.92444
   388   1    11.77333    -3.92444    -3.92444
   389   1    15.69777    -3.92444    -3.92444
   390   3    19.62221    -3.92444    -3.92444
   391   2    23.54666    -3.92444    -3.92444
   392   3   -23.54666     0.00000    -3.92444
   393   1   -19.62221     0.00000    -3.92444
   394   1   -15.69777     0.00000    -3.92444
   395   2   -11.77333     0.00000    -3.92444
   396   2    -7.84889     0.00000    -3.92444
   397   2    -3.92444     0.00000    -3.92444
   398   2     0.00000     0.00000    -3.92444
   399   2     3.92444     0.00000    -3.92444
   400   3     7.84889     0.00000    -3.92444
   401   2    11.77333     0.00000    -3.92444
   402   3    15.69777     0.00000    -3.92444
   403   2    19.62221     0.00000    -3.92444
   404   1    23.54666     0.00000    -3.92444
   405   2   -23.54666     3.92444    -3.92444
   406   1   -19.62221     3.92444    -3.92444
   407   1   -15.69777     3.92444    -3.92444
   408   1   -11.77333     3.92444    -3.92444
   409   1    -7.84889     3.92444    -3.92444
   410   3    -3.92444     3.92444    -3.92444
   411   1     0.00000     3.92444    -3.92444
   412   2     3.92444     3.92444    -3.92444
   413   2     7.84889     3.92444    -3.92444
   414   2    11.77333     3.92444    -3.92444
   415   2    15.69777     3.92444    -3.92444
   416   2    19.62221     3.92444    -3.92444
   417   2    23.54666     3.92444    -3.92444
   418   1   -19.62221     7.84889    -3.92444
   419   2   -15.69777     7.84889    -3.92444
   420   1   -11.77333     7.84889    -3.92444
   421   2    -7.84889     7.84889    -3.92444
   422   1    -3.92444     7.84889    -3.92444
   423   2     0.00000     7.84889    -3.92444
   424   2     3.92444     7.84889    -3.92444
   425   1     7.84889     7.84889    -3.92444
   426   3    11.77333     7.84889    -3.92444
   427   1    15.69777     7.84889    -3.92444
   428   1    19.62221     7.84889    -3.92444
   429   3   -19.62221    11.77333    -3.92444
   430   3   -15.69777    11.77333    -3.92444
   431   2   -11.77333    11.77333    -3.92444
   432   3    -7.84889    11.77333    -3.92444
   433   2    -3.92444    11.77333    -3.92444
   434   2     0.00000    11.77333    -3.92444
   435   1     3.92444    11.77333    -3.92444
   436   1     7.84889    11.77333    -3.92444
   437   2    11.77333    11.77333    -3.92444
   438   2    15.69777    11.77333    -3.92444
   439   3    19.62221    11.77333    -3.92444
   440   3   -15.69777    15.69777    -3.92444
   441   1   -11.77333    15.69777    -3.92444
   442   2    -7.84889    15.69777    -3.92444
   443   3    -3.92444    15.69777    -3.92444
   444   3     0.00000    15.69777    -3.92444
   445   2     3.92444    15.69777    -3.92444
   446   2     7.84889    15.69777    -3.92444
   447   1    11.77333    15.69777    -3.92444
   448   3    15.69777    15.69777    -3.92444
   449   2   -11.77333    19.62221    -3.92444
   450   2    -7.84889    19.62221    -3.92444
   451   2    -3.92444    19.62221    -3.92444
   452   1     0.00000    19.62221    -3.92444
   453   2     3.92444    19.62221    -3.92444
   454   1     7.84889    19.62221    -3.92444
   455   2    11.77333    19.62221    -3.92444
   456   1    -3.92444    23.54666    -3.92444
   457   3     0.00000    23.54666    -3.92444
   458   2     3.92444    23.54666    -3.92444
   459   1    -7.84889   -23.54666     0.00000
   460   3    -3.92444   -23.54666     0.00000
   461   1     0.00000   -23.54666     0.00000
   462   1     3.92444   -23.54666     0.00000
   463   2     7.84889   -23.54666     0.00000
   464   1   -11.77333   -19.62221     0.00000
   465   3    -7.84889   -19.62221     0.00000
   466   3    -3.92444   -19.62221     0.00000
   467   2     0.00000   -19.62221     0.00000
   468   1     3.92444   -19.62221     0.00000
   469   1     7.84889   -19.62221     0.00000
   470   2    11.77333   -19.62221     0.00000
   471   2   -15.69777   -15.69777     0.00000
   472   3   -11.77333   -15.69777     0.00000
   473   2    -7.84889   -15.69777     0.00000
   474   2    -3.92444   -15.69777     0.00000
   475   2     0.00000   -15.69777     0.00000
   476   1     3.92444   -15.69777     0.00000
   477   2     7.84889   -15.69777     0.00000
   478   1    11.77333   -15.69777     0.00000
   479   3    15.69777   -15.69777     0.00000
   480   2   -19.62221   -11.77333     0.00000
   481   2   -15.69777   -11.77333     0.00000
   482   1   -11.77333   -11.77333     0.00000
   483   3    -7.84889   -11.77333     0.00000
   484   3    -3.92444   -11.77333     0.00000
   485   1     0.00000   -11.77333     0.00000
   486   1     3.92444   -11.77333     0.00000
   487   3     7.84889   -11.77333     0.00000
   488   1    11.77333   -11.77333     0.00000
   489   2    15.69777   -11.77333     0.00000
   490   2    19.62221   -11.77333     0.00000
   491   2   -23.54666    -7.84889     0.00000
   492   3   -19.62221    -7.84889     0.00000
   493   2   -15.69777    -7.84889     0.00000
   494   2   -11.77333    -7.84889     0.00000
   495   1    -7.84889    -7.84889     0.00000
   496   3    -3.92444    -7.84889     0.00000
   497   2     0.00000    -7.84889     0.00000
   498   3     3.92444    -7.84889     0.00000
   499   3     7.84889    -7.84889     0.00000
   500   2    11.77333    -7.84889     0.00000
   501   3    15.69777    -7.84889     0.00000
   502   1    19.62221    -7.84889     0.00000
   503   2    23.54666    -7.84889     0.00000
   504   3   -23.54666    -3.92444     0.00000
   505   2   -19.62221    -3.92444     0.00000
   506   1   -15.69777    -3.92444     0.00000
   507   2   -11.77333    -3.92444     0.00000
   508   2    -7.84889    -3.92444     0.00000
   509   1    -3.92444    -3.92444     0.00000
   510   1     0.00000    -3.92444     0.00000
   511   1     3.92444    -3.92444     0.00000
   512   3     7.84889    -3.92444     0.00000
   513   2    11.77333    -3.92444     0.00000
   514   1    15.69777    -3.92444     0.00000
   515   2    19.62221    -3.92444     0.00000
   516   2    23.54666    -3.92444     0.00000
   517   1   -23.54666     0.00000     0.00000
   518   3   -19.62221     0.00000     0.00000
   519   2   -15.69777     0.00000     0.00000
   520   2   -11.77333     0.00000     0.00000
   521   2    -7.84889     0.00000     0.00000
   522   2    -3.92444     0.00000     0.00000
   523   1     0.00000     0.00000     0.00000
   524   1     3.92444     0.00000     0.00000
   525   2     7.84889     0.00000     0.00000
   526   1    11.77333     0.00000     0.00000
   527   3    15.69777     0.00000     0.00000
   528   2    19.62221     0.00000     0.00000
   529   3    23.54666     0.00000     0.00000
   530   3   -23.54666     3.92444     0.00000
   531   2   -19.62221     3.92444     0.00000
   532   1   -15.69777     3.92444     0.00000
   533   2   -11.77333     3.92444     0.00000
   534   1    -7.84889     3.92444     0.00000
   535   1    -3.92444     3.92444     0.00000
   536   2     0.00000     3.92444     0.00000
   537   1     3.92444     3.92444     0.00000
   538   3     7.84889     3.92444     0.00000
   539   2    11.77333     3.92444     0.00000
   540   3    15.69777     3.92444     0.00000
   541   1    19.62221     3.92444     0.00000
   542   1    23.54666     3.92444     0.00000
   543   2   -23.54666     7.84889     0.00000
   544   1   -19.62221     7.84889     0.00000
   545   2   -15.69777     7.84889     0.00000
   546   1   -11.77333     7.84889     0.00000
   547   3    -7.84889     7.84889     0.00000
   548   2    -3.92444     7.84889     0.00000
   549   2     0.00000     7.84889     0.00000
   550   1     3.92444     7.84889     0.00000
   551   2     7.84889     7.84889     0.00000
   552   1    11.77333     7.84889     0.00000
   553   3    15.69777     7.84889     0.00000
   554   1    19.62221     7.84889     0.00000
   555   2    23.54666     7.84889     0.00000
   556   2   -19.62221    11.77333     0.00000
   557   2   -15.69777    11.77333     0.00000
   558   3   -11.77333    11.77333     0.00000
   559   1    -7.84889    11.77333     0.00000
   560   3    -3.92444    11.77333     0.00000
   561   2     0.00000    11.77333     0.00000
   562   3     3.92444    11.77333     0.00000
   563   1     7.84889    11.77333     0.00000
   564   2    11.77333    11.77333     0.00000
   565   3    15.69777    11.77333     0.00000
   566   2    19.62221    11.77333     0.00000
   567   2   -15.69777    15.69777     0.00000
   568   2   -11.77333    15.69777     0.00000
   569   2    -7.84889    15.69777     0.00000
   570   3    -3.92444    15.69777     0.00000
   571   1     0.00000    15.69777     0.00000
   572   1     3.92444    15.69777     0.00000
   573   1     7.84889    15.69777     0.00000
   574   3    11.77333    15.69777     0.00000
   575   2    15.69777    15.69777     0.00000
   576   2   -11.77333    19.62221     0.00000
   577   3    -7.84889    19.62221     0.00000
   578   2    -3.92444    19.62221     0.00000
   579   3     0.00000    19.62221     0.00000
   580   1     3.92444    19.62221     0.00000
   581   2     7.84889    19.62221     0.00000
   582   3    11.77333    19.62221     0.00000
   583   2    -7.84889    23.54666     0.00000
   584   3    -3.92444    23.54666     0.00000
   585   1     0.00000    23.54666     0.00000
   586   1     3.92444    23.54666     0.00000
   587   3     7.84889    23.54666     0.00000
   588   3    -3.92444   -23.54666     3.92444
   589   1     0.00000   -23.54666     3.92444
   590   3     3.92444   -23.54666     3.92444
   591   2   -11.77333   -19.62221     3.92444
   592   2    -7.84889   -19.62221     3.92444
   593   3    -3.92444   -19.62221     3.92444
   594   3     0.00000   -19.62221     3.92444
   595   1     3.92444   -19.62221     3.92444
   596   1     7.84889   -19.62221     3.92444
   597   1    11.77333   -19.62221     3.92444
   598   2   -15.69777   -15.69777     3.92444
   599   2   -11.77333   -15.69777     3.92444
   600   3    -7.84889   -15.69777     3.92444
   601   2    -3.92444   -15.69777     3.92444
   602   3     0.00000   -15.69777     3.92444
   603   2     3.92444   -15.69777     3.92444
   604   2     7.84889   -15.69777     3.92444
   605   1    11.77333   -15.69777     3.92444
   606   2    15.69777   -15.69777     3.92444
   607   1   -19.62221   -11.77333     3.92444
   608   2   -15.69777   -11.77333     3.92444
   609   3   -11.77333   -11.77333     3.92444
   610   3    -7.84889   -11.77333     3.92444
   611   1    -3.92444   -11.77333     3.92444
   612   1     0.00000   -11.77333     3.92444
   613   1     3.92444   -11.77333     3.92444
   614   1     7.84889   -11.77333     3.92444
   615   2    11.77333   -11.77333     3.92444
   616   1    15.69777   -11.77333     3.92444
   617   1    19.62221   -11.77333     3.92444
   618   3   -19.62221    -7.84889     3.92444
   619   2   -15.69777    -7.84889     3.92444
   620   2   -11.77333    -7.84889     3.92444
   621   1    -7.84889    -7.84889     3.92444
   622   3    -3.92444    -7.84889     3.92444
   623   2     0.00000    -7.84889     3.92444
   624   2     3.92444    -7.84889     3.92444
   625   1     7.84889    -7.84889     3.92444
   626   1    11.77333    -7.84889     3.92444
   627   1    15.69777    -7.84889     3.92444
   628   3    19.62221    -7.84889     3.92444
   629   2   -23.54666    -3.92444     3.92444
   630   3   -19.62221    -3.92444     3.92444
   631   2   -15.69777    -3.92444     3.92444
   632   2   -11.77333    -3.92444     3.92444
   633   1    -7.84889    -3.92444     3.92444
   634   2    -3.92444    -3.92444     3.92444