4321
 Atoms. Timestep: 4193
2 0.0849189 -7.41614 -22.949
3 -3.87325 -3.78365 -22.5896
2 0.155879 -3.87428 -23.0517
2 4.16767 -3.88225 -23.1035
1 -7.46003 0.0461236 -22.6464
3 -3.86592 0.12393 -22.5725
3 -0.0929675 -0.0829473 -22.8825
1 3.75956 0.021163 -22.9245
2 7.56782 -0.109733 -22.6695
1 -3.9282 3.74089 -22.9548
1 0.0471803 4.066 -22.8238
3 3.70475 3.7842 -23.0143
2 0.195742 7.59279 -22.6659
3 -7.74817 -11.3459 -18.8857
1 -3.63431 -11.5424 -18.9351
1 -0.0470251 -11.7711 -19.095
2 4.07343 -11.6029 -19.2784
1 7.71029 -11.6348 -19.1733
3 -11.2447 -7.50509 -18.9651
3 -7.68827 -7.50916 -18.84
2 -3.72046 -7.7276 -18.949
3 0.163631 -7.91142 -19.2628
2 3.76996 -7.60286 -19.0782
1 7.42897 -7.67454 -19.2997
1 11.6589 -7.52134 -19.4197
3 -11.375 -3.6857 -18.9601
3 -7.67569 -3.70981 -19.0389
1 -3.78033 -3.86796 -19.1075
3 0.127353 -3.82629 -19.1646
3 3.77962 -3.79156 -19.2945
1 7.7519 -4.07763 -19.1973
3 11.5836 -3.97201 -19.2852
2 -11.1226 0.139405 -18.9038
2 -7.63158 0.0379781 -18.8935
1 -3.83571 0.0200517 -19.1328
3 -0.0273171 -0.0241163 -19.0434
2 3.79943 -0.0498964 -19.2337
2 7.58806 -0.081534 -19.2035
1 12.1606 -0.0364775 -20.1965
3 -11.2447 3.9111 -18.8264
3 -7.54052 3.933 -18.9555
2 -3.87521 3.86747 -19.1371
2 -0.0820297 3.75897 -19.1543
2 3.81433 3.78179 -19.2751
2 7.61261 3.81573 -19.4087
1 11.5468 4.11832 -19.3917
1 -11.6213 7.72012 -18.9467
2 -7.53642 7.69545 -18.8468
2 -3.88242 7.65994 -19.2807
2 0.00395298 7.81041 -19.0944
2 3.82643 7.55846 -19.2434
3 7.7169 7.56288 -19.2555
3 11.4795 7.61695 -19.2067
2 -8.05652 11.3193 -19.2941
3 -4.175 11.5906 -19.1304
1 0.00400997 12.2165 -19.9307
1 4.05514 11.3836 -19.1399
2 7.92627 11.2236 -19.0962
3 -7.46855 -14.8884 -14.9232
2 -3.85742 -15.1396 -15.0406
2 -0.0585456 -15.2533 -15.0181
1 3.80426 -15.3029 -15.3607
3 7.7569 -15.1472 -15.4442
1 -11.7663 -11.5807 -15.6146
1 -7.49654 -11.3641 -15.437
1 -3.71742 -11.2256 -15.2
3 0.0763868 -11.4508 -15.1052
3 3.87423 -11.5168 -15.2571
1 7.81404 -11.6182 -15.5232
1 11.5773 -11.6154 -15.3863
2 -15.0815 -7.37622 -15.0862
2 -11.3242 -7.51313 -15.1299
1 -7.58193 -7.64092 -15.2915
1 -3.8073 -7.5177 -15.1927
2 -0.0230698 -7.41603 -15.2931
3 4.01561 -7.6841 -15.3602
3 7.81707 -7.75321 -15.5384
1 11.4466 -7.75577 -15.5943
2 15.344 -7.928 -15.3961
1 -15.1573 -3.6075 -15.1371
2 -11.3175 -3.72981 -15.2332
3 -7.73813 -3.94865 -15.1988
3 -3.65433 -3.85517 -15.3414
3 -0.0438715 -3.78423 -15.2631
3 3.84189 -3.71075 -15.3505
2 7.71666 -3.76804 -15.5467
3 11.5994 -3.97674 -15.4072
2 15.5712 -4.15431 -15.3609
1 -14.985 -0.0625028 -15.2157
2 -11.3319 -0.0685036 -15.3247
1 -7.53277 -0.083441 -15.1485
1 -3.74887 -0.0284372 -15.1948
3 0.00626933 -0.0284448 -15.3453
2 3.90307 -0.119702 -15.4332
1 7.66187 0.0655953 -15.5652
3 11.448 -0.0514502 -15.4465
2 15.29 0.27911 -15.6465
2 -15.1649 3.98335 -15.0229
1 -11.3885 3.95257 -15.2069
2 -7.52769 3.97689 -15.1567
2 -3.60817 3.87382 -15.3332
3 -0.105779 3.84414 -15.4215
3 3.84061 3.68705 -15.5983
3 7.6862 3.77489 -15.4015
3 11.434 3.8011 -15.3732
1 15.3143 3.92913 -15.6137
3 -15.3373 7.83756 -15.2176
2 -11.2567 7.75357 -15.1658
3 -7.55329 7.75618 -15.2632
3 -3.71727 7.81058 -15.4244
1 0.00412073 7.57558 -15.4957
2 3.81337 7.69095 -15.4179
2 7.62911 7.62132 -15.5494
1 11.4781 7.56737 -15.4281
3 15.22 7.60276 -15.3145
1 -11.3871 11.3413 -15.2359
3 -7.52492 11.524 -15.3074
2 -3.65183 11.5227 -15.3887
2 0.133742 11.3975 -15.5498
3 3.91553 11.1859 -15.4888
2 7.61868 11.4129 -15.4798
1 11.7779 11.6452 -15.8184
2 -7.86858 15.3285 -15.413
3 -3.7809 15.2454 -15.5699
2 0.121532 15.2861 -15.4904
2 3.96919 15.4981 -15.8556
1 8.02502 15.0698 -15.4003
3 -7.67975 -18.6976 -11.2088
3 -3.85057 -18.9388 -11.0258
2 0.284486 -19.2777 -11.3731
1 3.96708 -19.0664 -11.5268
2 7.77425 -19.0487 -11.3445
3 -11.4237 -14.9682 -11.273
1 -7.64176 -15.1363 -11.3026
1 -3.70185 -15.2176 -11.3797
2 0.152096 -15.1919 -11.1734
2 4.01432 -15.2468 -11.465
2 7.76336 -15.2872 -11.657
2 11.7007 -15.4699 -11.7286
3 -14.9185 -11.2071 -11.2372
2 -11.5084 -11.265 -11.1948
2 -7.48025 -11.3908 -11.181
1 -3.71188 -11.294 -11.3465
1 0.0525173 -11.5853 -11.4512
3 3.99891 -11.6443 -11.6719
2 7.69204 -11.4984 -11.6014
2 11.5828 -11.472 -11.5875
2 15.3755 -11.4891 -11.4909
3 -18.5751 -7.56349 -11.3265
3 -15.2549 -7.55842 -11.4211
3 -11.4535 -7.49899 -11.2579
2 -7.52279 -7.3586 -11.3478
1 -3.8153 -7.51105 -11.2739
2 0.300492 -7.59973 -11.4194
3 3.81267 -7.69645 -11.5098
3 7.57947 -7.6466 -11.7611
1 11.3547 -7.76565 -11.6131
3 15.3856 -7.77688 -11.5953
3 19.115 -7.68335 -11.7549
2 -19.0039 -3.98757 -11.4967
2 -15.2192 -3.70714 -11.3286
2 -11.4419 -3.79399 -11.3626
2 -7.54885 -3.86286 -11.4068
2 -3.7821 -3.81024 -11.542
3 0.0968373 -3.91878 -11.5536
2 3.84724 -3.76706 -11.8459
2 7.56011 -3.84817 -11.6844
2 11.4043 -3.78486 -11.7584
2 15.3312 -3.80495 -11.7152
1 19.6929 -4.05861 -12.1319
3 -18.7102 0.131997 -11.146
2 -15.2315 0.14606 -11.4874
2 -11.4293 -0.0473168 -11.4836
2 -7.42783 -0.00765608 -11.4189
3 -3.85788 -0.0655555 -11.5177
2 0.0790569 -0.0866919 -11.729
3 3.91218 -0.0884286 -11.4993
2 7.66266 0.149635 -11.7236
2 11.4621 -0.098137 -11.8224
3 15.2488 -0.108456 -11.9719
1 19.0297 0.0584233 -11.8423
3 -18.8834 4.06324 -11.4443
1 -15.1931 4.05907 -11.4939
1 -11.2864 3.90971 -11.4062
3 -7.62894 3.77447 -11.5276
3 -3.68511 3.90481 -11.5008
1 0.182635 3.80665 -11.4482
3 3.79635 3.81674 -11.5308
2 7.84969 3.69135 -11.6103
3 11.42 3.82154 -11.7091
1 15.3492 3.72016 -11.8278
1 18.9153 3.83709 -11.7478
3 -18.654 7.81711 -11.3456
2 -15.0284 7.87081 -11.4769
2 -11.3022 7.7368 -11.3333
2 -7.59391 7.63051 -11.2132
2 -3.78211 7.58987 -11.4331
3 0.0410066 7.5463 -11.7601
3 3.85397 7.49617 -11.6051
2 7.71007 7.55953 -11.5779
1 11.4304 7.65272 -11.758
1 15.3118 7.64985 -11.7268
2 19.1314 7.87417 -11.4996
3 -15.1446 11.5708 -11.3018
1 -11.1487 11.5123 -11.3397
1 -7.36563 11.4211 -11.5764
3 -3.64755 11.3545 -11.422
1 0.169656 11.4278 -11.6879
3 3.92772 11.4842 -11.631
2 7.54897 11.3275 -11.6616
3 11.5093 11.3182 -11.9632
1 15.3062 11.5425 -11.7977
2 -11.2603 15.321 -11.4858
1 -7.50713 15.268 -11.4254
2 -3.67393 15.2707 -11.6707
2 0.147793 15.2325 -11.8612
2 3.96357 15.2608 -11.7371
2 7.79383 15.1288 -11.765
2 11.6157 15.0483 -11.8215
3 -7.63825 19.1713 -11.2976
3 -3.80572 19.2215 -11.7757
3 0.103384 19.093 -11.7138
3 3.8263 18.8556 -11.7098
3 7.94634 18.7115 -11.5331
1 0.111346 -22.7989 -7.25127
3 -11.2891 -18.8041 -7.34191
3 -7.56412 -18.9739 -7.28843
2 -3.75741 -19.076 -7.10195
2 0.15566 -19.1421 -7.50066
2 4.01997 -19.1096 -7.63084
2 7.82326 -19.2053 -7.37138
2 11.5746 -19.0417 -7.67213
2 -15.3427 -15.2232 -8.03448
3 -11.5117 -15.2145 -7.43609
3 -7.63041 -15.2812 -7.4166
1 -3.67897 -15.2761 -7.40727
2 0.248692 -15.4058 -7.56939
2 4.06229 -15.4238 -7.62815
3 7.92381 -15.3539 -7.58353
3 11.7567 -15.3548 -7.77182
2 15.6081 -15.4176 -8.14225
2 -18.9582 -11.348 -7.7125
3 -15.1617 -11.5076 -7.53609
2 -11.2919 -11.5466 -7.44803
2 -7.40739 -11.4134 -7.42958
2 -3.77176 -11.3499 -7.45373
1 0.1821 -11.4608 -7.65964
2 4.03628 -11.5419 -7.67906
1 7.63761 -11.6904 -7.77608
2 11.7051 -11.7084 -7.76815
2 15.4461 -11.5393 -7.93917
1 18.9495 -11.4547 -8.15443
3 -18.8639 -7.5574 -7.41042
2 -15.2027 -7.53564 -7.44654
2 -11.4585 -7.62254 -7.34934
2 -7.59251 -7.58058 -7.27866
3 -3.73456 -7.58711 -7.4293
2 0.208868 -7.57625 -7.85009
1 3.75858 -7.5777 -7.60777
2 7.69197 -8.04234 -7.85463
1 11.5249 -7.65314 -8.05919
1 15.3275 -7.75021 -7.93225
3 19.1323 -7.26297 -7.94265
2 -18.935 -3.64509 -7.43151
1 -15.1834 -3.84629 -7.61069
1 -11.3306 -3.81396 -7.54698
3 -7.59339 -3.72171 -7.49827
1 -3.80128 -3.87371 -7.55828
1 0.0667112 -3.78819 -7.79859
1 3.95568 -3.91656 -7.92901
3 7.59241 -4.0322 -7.97522
3 11.5714 -3.99511 -7.9468
1 15.2679 -3.85448 -8.20687
2 19.1881 -3.81193 -8.11283
3 -22.5813 0.120671 -7.58852
2 -19.0178 0.193511 -7.45473
2 -15.2492 -0.00726845 -7.49123
2 -11.3616 0.105214 -7.63352
3 -7.52265 -0.12779 -7.58715
3 -3.7923 -0.025258 -7.74802
2 0.260889 0.0109181 -7.94632
2 3.89883 -0.127833 -7.8779
1 7.77472 -0.209478 -8.01319
1 11.2872 -0.184752 -8.07798
3 15.3665 -0.0428927 -8.10083
2 19.0692 -0.0921433 -8.02318
2 22.9188 -0.0753866 -8.11554
3 -18.9409 4.00856 -7.5994
2 -15.1183 4.00057 -7.56007
3 -11.215 3.98757 -7.66314
2 -7.52087 3.85416 -7.3723
2 -3.91119 3.75803 -7.67852
2 0.165955 3.71018 -7.69086
3 3.86747 3.88605 -7.64666
1 7.6369 3.90367 -7.77806
2 11.4559 3.84553 -7.97817
2 15.2516 3.73518 -8.01181
2 19.1726 4.00135 -8.06914
1 -18.9916 7.83021 -7.51951
2 -15.1701 7.6381 -7.44024
2 -11.3181 7.75233 -7.52141
3 -7.50304 7.78007 -7.58489
1 -3.68214 7.58049 -7.70185
1 0.066964 7.50753 -7.90747
2 3.76111 7.60288 -7.88981
2 7.59622 7.3628 -7.90231
1 11.4952 7.5765 -7.93911
2 15.2236 7.63562 -8.03134
1 19.0637 7.69709 -7.69735
2 -19.0163 11.4208 -7.55411
3 -15.4128 11.6293 -7.51821
2 -11.1958 11.423 -7.54301
2 -7.35663 11.373 -7.7882
2 -3.66819 11.4946 -7.55572
3 0.217869 11.3524 -7.90942
2 3.72992 11.4977 -7.95557
3 7.76654 11.5468 -7.85799
1 11.6355 11.3815 -7.86056
3 15.1925 11.465 -7.95514
2 18.9233 11.819 -8.14141
2 -15.1064 15.5783 -7.81239
3 -11.2887 15.2388 -7.4698
1 -7.50297 15.2748 -7.76732
2 -3.62087 15.2933 -7.73448
3 0.0837893 15.2025 -7.8338
3 3.92419 15.173 -8.00688
2 7.76194 15.3121 -7.85864
3 11.5471 15.1019 -7.73295
2 15.542 15.3801 -8.00241
1 -11.4095 19.1663 -7.73758
2 -7.40457 19.241 -7.66539
2 -3.52014 19.1688 -7.57168
3 0.117479 19.0262 -7.69817
1 3.8088 18.814 -8.03705
3 7.71449 19.0162 -7.79403
1 11.6466 18.7497 -7.9421
3 0.19151 22.7692 -7.46601
1 -3.74423 -22.8503 -3.54659
1 0.300425 -22.6561 -3.44737
1 4.12953 -22.5219 -3.63181
2 -11.6058 -18.7945 -3.53638
3 -7.59669 -19.1468 -3.61519
2 -3.70688 -19.1445 -3.61286
3 0.206027 -18.9838 -3.61283
2 4.05492 -19.1054 -3.46157
1 7.9265 -18.9652 -3.732
2 12.0285 -19.1384 -3.9781
1 -15.5626 -15.3044 -3.52576
2 -11.3334 -15.2423 -3.6987
1 -7.39441 -15.2839 -3.67763
1 -3.69154 -15.1628 -3.47496
2 0.13637 -15.4315 -3.67731
2 3.87972 -15.293 -3.82868
1 8.01672 -15.4257 -3.92623
1 11.8615 -15.2949 -3.82991
2 15.4751 -15.2015 -3.95769
3 -19.0864 -11.4514 -3.70111
3 -15.1224 -11.282 -3.5213
1 -11.5091 -11.4666 -3.61417
1 -7.73809 -11.4591 -3.736
3 -3.70023 -11.4255 -3.6189
3 0.137904 -11.345 -3.92549
1 4.14387 -11.6624 -3.85429
2 7.79308 -11.4765 -3.94718
3 11.6755 -11.4579 -4.04914
3 15.4842 -11.4353 -3.75497
2 19.3359 -11.4855 -3.83498
3 -19.3234 -7.55466 -3.66715
3 -15.4604 -7.58078 -3.69075
2 -11.4838 -7.59671 -3.70077
3 -7.6247 -7.64576 -3.72126
1 -3.78823 -7.44498 -3.59752
3 0.150693 -7.48592 -3.87077
2 3.95828 -7.81711 -3.9823
2 7.78853 -7.7494 -3.94236
2 11.4685 -7.60805 -3.89404
1 15.2423 -7.52743 -4.03312
1 19.0576 -7.53025 -3.99684
2 -22.7501 -3.59524 -3.76714
1 -19.0396 -3.73174 -3.69404
2 -15.1297 -3.77899 -3.70511
1 -11.2976 -3.77839 -3.59138
1 -7.56137 -3.6909 -3.65022
2 -3.87193 -3.86349 -3.83663
1 0.0432312 -3.80704 -3.89552
3 3.95488 -3.98413 -3.95993
2 7.76925 -3.94096 -3.94738
1 11.4146 -3.82455 -3.98966
1 15.2867 -3.87437 -3.95052
3 19.3301 -3.9105 -4.15936
2 22.9712 -3.88587 -4.08022
3 -22.8468 0.0991352 -3.78999
1 -18.9286 -0.173516 -3.7112
1 -15.079 0.00192805 -3.56179
2 -11.3334 0.0656413 -3.72148
2 -7.67088 -0.153075 -3.78365
2 -3.62551 -0.064941 -3.82711
2 -0.0178397 -0.293266 -3.84918
2 3.97295 -0.13074 -4.05807
3 7.85947 -0.207823 -4.02315
2 11.6106 -0.31552 -4.07665
3 15.3619 -0.0420613 -4.12714
2 19.1277 0.0530264 -4.02068
1 22.8065 -0.123162 -4.09972
2 -22.6377 4.03112 -3.74313
1 -19.0065 4.01759 -3.84786
1 -15.0788 3.76273 -3.74828
1 -11.3565 3.92075 -3.796
1 -7.6298 3.97102 -3.63467
3 -3.60238 3.6944 -3.81919
1 -0.0791754 3.72618 -3.8737
2 3.76937 3.68434 -3.916
2 7.51247 3.82141 -3.8459
2 11.6183 3.5572 -4.11438
2 15.29 3.7594 -4.02203
2 19.1345 3.75674 -4.1514
2 23.4649 3.63902 -4.26025
1 -19.0165 7.82323 -3.9392
2 -15.1088 7.99939 -3.78056
1 -11.3038 7.72969 -3.79045
2 -7.40068 7.74223 -3.76568
1 -3.68927 7.48551 -3.89537
2 0.11034 7.53768 -4.06664
2 3.8228 7.57545 -4.00968
1 7.44906 7.57187 -4.04447
3 11.4453 7.5537 -4.05448
1 15.1675 7.60077 -4.09535
1 18.9347 7.855 -4.0458
3 -18.928 11.7765 -3.67976
3 -15.0275 11.7706 -3.91431
2 -11.2349 11.6871 -3.7769
3 -7.54973 11.4108 -3.67799
2 -3.68922 11.7298 -3.76976
2 0.0968635 11.4509 -3.93431
1 3.65622 11.4699 -4.17001
1 7.64378 11.5539 -3.96939
2 11.461 11.4922 -4.06763
2 15.2682 11.3676 -3.94872
3 18.7156 11.3929 -4.10874
3 -15.0221 15.4055 -3.86649
1 -11.2349 15.2671 -3.74327
2 -7.47384 15.286 -3.77408
3 -3.86079 15.1834 -3.87006
3 0.0119217 15.2988 -3.84621
2 3.82708 15.2989 -4.02398
2 7.50269 15.1356 -4.22875
1 11.5135 15.1421 -3.85618
3 15.1316 15.1514 -3.8657
2 -11.4397 19.3946 -3.91377
2 -7.45812 19.2472 -3.96679
2 -3.69313 19.1748 -3.81529
1 0.0791725 18.9936 -3.94872
2 3.88228 18.9494 -4.08869
1 7.72199 19.0862 -4.036
2 11.8911 19.5799 -4.54991
1 -3.47067 22.8656 -3.6434
3 0.267916 22.7198 -3.66034
2 3.81474 23.0109 -3.89636
1 -7.49368 -22.7545 0.502041
3 -3.82084 -22.7787 0.360975
1 0.0951934 -22.7284 0.342789
1 3.90477 -22.777 0.280698
2 7.8224 -22.9277 0.206871
1 -11.5724 -19.2717 0.204324
3 -7.75317 -18.9324 0.382268
3 -3.81117 -18.8153 0.35218
2 0.229757 -19.0889 0.358367
1 3.89656 -19.0228 0.246363
1 7.85263 -19.0381 0.349467
2 11.7913 -19.0512 0.326734
2 -15.0003 -14.9893 0.147858
3 -11.4097 -15.1704 0.397824
2 -7.6972 -15.2591 0.307974
2 -3.66022 -15.2583 0.132416
2 0.121912 -15.2667 0.201691
1 3.83774 -15.1472 0.0392185
2 7.71737 -15.1573 0.167245
1 11.5317 -15.072 0.218573
3 15.4016 -14.815 0.163523
2 -19.2264 -11.3624 0.289578
2 -15.2462 -11.353 0.329151
1 -11.4305 -11.3069 0.278057
3 -7.68806 -11.2779 0.25882
3 -3.7385 -11.4038 0.0272427
1 0.0480356 -11.422 -0.0481545
1 3.808 -11.5159 0.0220915
3 7.62892 -11.4953 0.0595731
1 11.5851 -11.35 -0.0786899
2 15.4022 -11.3531 0.0170874
2 19.3827 -11.4434 0.158801
2 -22.8537 -7.1899 -0.0538874
3 -19.0942 -7.56313 0.220264
2 -15.1991 -7.61818 0.224674
2 -11.4609 -7.57448 0.263872
1 -7.54116 -7.64819 0.258585
3 -3.69223 -7.63803 0.0794711
2 0.0153753 -7.61783 0.0342084
3 3.75274 -7.44884 -0.0685552
3 7.82271 -7.72281 0.0817366
2 11.5063 -7.58902 0.0581604
3 15.3579 -7.47606 -0.175317
1 19.1213 -7.47832 -0.0500382
2 23.0953 -7.33826 -0.539424
3 -22.8217 -3.50684 0.1331
2 -19.1067 -3.71364 0.0590158
1 -15.3173 -3.7829 0.0118683
2 -11.4477 -3.89669 0.0449442
2 -7.62783 -3.94919 0.00769937
1 -3.80985 -3.70291 0.106202
1 0.0816279 -3.8632 0.0272623
1 3.87362 -4.01831 0.0303833
3 7.8328 -3.85656 -0.213715
2 11.5816 -3.95498 -0.0552761
1 15.4886 -3.90674 -0.243094
2 19.237 -3.56938 -0.244159
2 22.8816 -3.61574 -0.105445
1 -22.9015 0.0576099 -0.0658695
3 -18.8343 -0.00725712 0.114129
2 -15.2577 -0.0132574 0.104655
2 -11.4375 -0.0336849 0.162346
2 -7.42214 -0.0452709 0.166348
2 -3.73297 -0.0299329 0.0913568
1 0.100484 -0.108279 0.0450619
1 3.7842 -0.19165 -0.168592
2 7.93245 -0.304454 -0.254839
1 11.5743 -0.155695 -0.245459
3 15.508 0.0538734 -0.175246
2 19.0878 -0.164719 -0.304036
3 22.9027 0.023702 -0.486436
3 -22.6359 3.99478 -0.0409101
2 -19.1552 3.99524 0.0263404
1 -15.1948 3.87645 0.0662324
2 -11.2905 3.82482 0.0540828
1 -7.61541 3.84506 0.07963
1 -3.74931 3.77393 -0.165086
2 0.0854077 3.85698 -0.050795
1 3.8314 3.64858 -0.156881
3 7.67044 3.61386 -0.306079
2 11.5544 3.72717 -0.33526
3 15.3789 3.70825 -0.30758
1 19.0326 3.75829 -0.284598
1 22.7406 3.87906 -0.452847
2 -22.9683 7.58051 -0.30476
1 -19.1532 7.79109 -0.0349882
2 -15.0447 7.88096 0.138214
1 -11.3997 7.79837 0.170001
3 -7.51003 7.49701 0.0853382
2 -3.70481 7.51848 -0.0832539
2 0.104978 7.38191 -0.1298
1 3.81318 7.52715 -0.111073
2 7.67346 7.47087 -0.245795
1 11.4397 7.72069 -0.218349
3 15.2439 7.52342 -0.238123
1 18.9296 7.57047 -0.207379
2 22.7402 7.44367 -0.501355
2 -18.9153 11.8377 0.0841653
2 -15.2439 11.7874 0.233899
3 -11.2625 11.5984 0.0771634
1 -7.45227 11.3572 0.0451052
3 -3.60418 11.3688 -0.0330912
2 0.101242 11.3404 -0.0533586
3 3.88246 11.0471 -0.107266
1 7.47417 11.406 -0.335763
2 11.3483 11.3382 -0.282775
3 15.1084 11.4731 -0.0851445
2 19.087 11.606 -0.322042
2 -15.1275 15.5816 0.081219
2 -11.3877 15.485 0.0760547
2 -7.51486 15.2515 0.21457
3 -3.59109 15.1107 -0.0526903
1 0.0694112 15.1255 -0.0565729
1 3.68079 15.2331 -0.0923998
1 7.6597 15.1551 -0.295725
3 11.492 15.0181 -0.169633
2 15.1635 15.1781 0.0679265
2 -11.3661 19.1409 -0.0294216
3 -7.48321 18.9501 0.268822
2 -3.71358 19.0192 0.0142403
3 0.0609107 19.0162 -0.0392469
1 3.70876 18.9751 0.181458
2 7.43972 18.7724 -0.0133935
3 11.3533 19.1195 -0.064841
2 -7.50865 22.7199 0.131927
3 -3.60428 22.7654 0.0399906
1 -0.0368249 22.8168 0.232432
1 4.00681 22.7094 -0.0155581
3 7.35939 22.6336 0.178199
3 -3.64162 -22.753 4.21681
1 0.0819467 -22.689 4.02926
3 3.86228 -22.5148 4.19225
2 -11.5502 -18.8887 4.13726
2 -7.58702 -18.8924 4.04535
3 -3.66184 -18.7178 3.95349
3 0.26244 -18.912 4.02096
1 3.94249 -18.9114 3.99958
1 7.71289 -18.9457 4.18175
1 11.6978 -18.9928 4.22248
2 -15.3024 -15.1508 3.98442
2 -11.5111 -15.1023 4.0071
3 -7.55482 -15.1678 4.04421
2 -3.80348 -15.1393 3.99024
3 -0.0432064 -15.1159 3.91768
2 3.89982 -15.0702 4.11053
2 7.70791 -15.1843 3.94046
1 11.4643 -15.1725 4.0287
2 15.6414 -15.1861 4.15539
1 -19.2618 -11.4491 4.11105
2 -15.2642 -11.4245 4.08609
3 -11.4527 -11.4895 4.05408
3 -7.56275 -11.3604 4.12888
1 -3.61037 -11.413 3.9975
1 0.055556 -11.4664 3.94724
1 3.91531 -11.351 3.88114
1 7.57857 -11.4025 3.94115
2 11.659 -11.2273 3.75706
1 15.2801 -11.2635 3.88605
1 19.7094 -11.8282 4.33869
3 -19.2859 -7.44415 3.86808
2 -15.4777 -7.5465 4.08713
2 -11.4016 -7.67893 4.1375
1 -7.63132 -7.61719 3.99547
3 -3.81492 -7.68271 3.90045
2 0.00690282 -7.5857 4.06322
2 3.92272 -7.64362 4.00422
1 7.71954 -7.57243 3.84249
1 11.4462 -7.56084 3.74013
1 15.3803 -7.518 3.76321
3 19.0077 -7.502 3.59939
2 -22.8852 -3.64072 3.92393
3 -19.112 -3.71834 3.9169
2 -15.38 -3.88681 3.81995
2 -11.4023 -3.80205 4.03111
1 -7.66468 -3.54951 3.96409
2 -3.83682 -3.72391 3.79803
2 0.0540312 -3.96083 4.00859
2 3.91101 -3.74653 3.94949
3 7.72864 -3.95871 3.74222
1 11.5716 -3.83208 3.67522
3 15.5137 -3.79519 3.61927
2 19.1907 -3.86036 3.99879
1 23.1333 -4.10986 3.33356
2 -23.0771 0.0593963 3.53981
2 -19.2093 -0.0516249 3.74917
3 -15.2782 0.0215046 3.97604
2 -11.3731 0.0521592 4.02586
3 -7.75648 0.0479304 4.14716
3 -3.91587 -0.0325952 3.97334
1 -0.113225 -0.0943221 3.8973
2 3.7485 -0.0766409 3.8545
2 7.60848 0.123335 3.76242
3 11.3897 -0.0960548 3.53697
1 15.4281 -0.0331926 3.58547
3 19.0892 0.0101172 3.57369
1 22.766 0.242912 3.43416
2 -22.735 3.79764 3.61213
3 -19.0974 4.06109 3.86774
2 -15.1758 3.95247 3.92402
3 -11.4503 3.88625 3.90176
3 -7.66191 3.78828 3.87491
3 -3.82681 3.82706 3.8757
3 -0.0695499 3.67055 3.85857
2 3.65934 3.72091 3.81376
2 7.45178 3.75175 3.83278
1 11.3174 3.6217 3.66613
1 15.1893 3.68485 3.4641
1 18.9875 3.72215 3.53902
2 22.807 3.79645 3.56679
3 -19.0405 7.81861 3.7999
2 -15.2073 7.74993 4.03634
3 -11.3615 7.75311 3.9642
2 -7.82505 7.67342 3.92159
2 -3.80624 7.5573 3.76516
3 0.171557 7.4238 3.7946
2 3.78444 7.5837 3.85155
3 7.54199 7.41471 3.72029
2 11.2525 7.53079 3.65965
3 15.1488 7.55872 3.611
2 19.0311 7.489 3.62023
2 -18.972 12.0445 4.05003
3 -15.0967 11.5607 3.92641
2 -11.2464 11.5211 3.92722
2 -7.60297 11.3379 3.96004
3 -3.70065 11.3822 3.68984
3 0.157407 11.3542 3.74944
3 3.86173 11.2126 3.65011
1 7.61282 11.365 3.79395
2 11.4127 11.3666 3.7624
1 15.1679 11.2808 3.73832
3 19.0662 11.3932 3.71358
1 -15.6461 15.8657 4.01112
2 -11.2502 15.2376 3.91811
2 -7.45016 15.0797 3.96657
2 -3.75774 14.9732 3.82142
2 -0.0183577 15.156 3.72418
3 3.80544 14.9576 3.86743
2 7.57294 15.1314 3.85529
3 11.2819 15.1452 3.78998
1 15.0077 15.2205 3.81437
3 -11.1296 19.0411 3.89959
2 -7.55295 18.9511 3.95205
3 -3.71217 18.9075 3.94717
3 0.0049245 18.817 3.88276
1 3.88496 18.9365 3.96135
2 7.67548 18.8318 3.83459
1 11.3436 18.8902 3.69774
1 -3.72206 22.7113 4.10715
1 -0.155754 22.5864 4.20692
2 3.77882 22.6014 4.1865
3 0.0242694 -22.5173 7.83879
3 -11.5115 -18.9855 7.72998
2 -7.41244 -18.9628 7.79053
2 -3.58616 -18.9538 7.76191
2 0.140392 -18.7101 7.76808
3 3.79949 -18.8912 7.84833
1 7.84833 -18.918 7.76238
3 11.4903 -18.6224 7.79179
2 -15.2395 -15.3265 7.90286
3 -11.2572 -15.2157 7.78811
1 -7.57387 -15.1675 7.7227
3 -3.86786 -15.4461 7.78126
3 0.0898044 -15.0326 7.84079
2 3.847 -14.9948 7.65154
2 7.7126 -15.1307 7.86892
3 11.3973 -14.8507 7.87854
1 15.3791 -15.0966 8.13199
2 -19.061 -11.3851 7.8376
1 -15.3904 -11.3751 7.79229
1 -11.5823 -11.4117 7.87672
1 -7.62749 -11.4929 7.64934
2 -3.71397 -11.3365 7.81105
1 -0.0161242 -11.3245 7.88353
2 3.87174 -11.3239 7.69691
2 7.48824 -11.3647 7.73427
2 11.4962 -11.2717 7.75185
2 15.1517 -11.3327 7.84441
2 18.989 -11.0466 8.00064
2 -19.1804 -7.5513 7.53673
2 -15.5092 -7.49274 7.82924
2 -11.5507 -7.70192 7.79467
2 -7.69159 -7.681 7.86289
1 -3.97301 -7.61897 7.87862
2 0.114501 -7.40587 7.9787
1 3.83014 -7.62991 7.78166
3 7.68049 -7.55147 7.84069
1 11.6007 -7.34779 7.50831
2 15.2552 -7.44844 7.68958
2 19.0171 -7.76064 7.53827
1 -19.0612 -3.70287 7.65857
3 -15.4746 -3.809 7.58546
2 -11.5473 -3.84562 7.91914
1 -7.68283 -3.75575 7.896
2 -4.12541 -3.83346 7.82623
2 -0.139967 -3.88544 7.77049
2 3.8346 -3.93713 7.82297
3 7.63461 -3.69575 7.65796
2 11.4469 -3.66561 7.41017
1 15.3671 -3.67476 7.44436
2 19.1695 -3.68434 7.35479
1 -22.7011 0.117747 7.53004
3 -19.096 0.0237358 7.67915
1 -15.5338 0.0835527 7.68336
2 -11.6334 -0.0660701 8.04156
2 -7.77652 -0.0378124 7.85595
2 -4.06281 -0.0883446 7.87048
3 -0.0978999 -0.111567 7.70192
3 3.80877 -0.00267626 7.71233
3 7.75887 -0.0275324 7.62469
1 11.5446 -0.0072241 7.42424
3 15.2319 -0.023922 7.67127
3 19.0524 0.249437 7.48031
2 23.0329 -0.017082 7.26383
3 -19.0645 3.78198 7.6433
1 -15.3737 3.80355 7.7418
3 -11.4526 3.70994 7.73471
1 -7.87331 3.73163 7.68464
2 -4.0444 3.66424 7.63285
3 -0.0708753 3.93985 7.60391
2 3.69114 3.53745 7.63624
1 7.53663 3.76271 7.70071
1 11.3191 3.70079 7.50965
3 15.1236 3.85225 7.44497
2 19.1204 3.72773 7.21059
1 -18.9927 7.50685 7.57212
3 -15.2933 7.56814 7.58386
3 -11.5463 7.57411 7.71512
2 -7.95851 7.50596 7.89424
1 -4.10638 7.55251 7.67303
3 0.0502241 7.63895 7.49388
1 3.72884 7.60969 7.61052
2 7.37943 7.33368 7.60583
2 11.2757 7.56208 7.69393
2 15.0587 7.59024 7.28112
3 19.0542 7.47542 7.4793
2 -18.5512 11.4778 7.94379
2 -14.9906 11.4429 7.75865
3 -11.4685 11.3254 7.82702
1 -7.77788 11.1924 7.84441
3 -3.90419 11.25 7.55325
2 -0.220369 11.317 7.78398
2 3.94056 11.2209 7.61083
3 7.42371 11.2554 7.47627
3 11.3122 11.3842 7.74602
3 15.1085 11.264 7.4119
2 18.6878 11.2577 7.55415
2 -15.5161 15.7807 8.34579
1 -11.3427 15.4818 7.55611
3 -7.57458 14.9009 7.85524
1 -3.8319 14.99 7.73755
3 0.100279 14.9668 7.78381
2 3.74073 15.0844 7.69616
2 7.64283 15.1148 7.41003
3 11.157 15.0951 7.66141
2 15.0298 14.9281 7.66812
2 -11.1493 19.0874 7.83471
1 -7.43646 19.0491 7.6873
2 -3.98789 18.9831 7.87131
3 -0.0318971 18.6927 7.81364
2 3.78934 18.716 7.84322
1 7.67698 18.8051 7.68862
3 11.245 18.7079 7.6964
2 0.0700222 22.4286 7.87795
2 -7.49824 -18.9555 11.4336
3 -3.62656 -19.0211 11.6515
2 0.0465558 -19.2089 11.598
2 5.231 -20.2156 11.7876
2 7.61042 -18.912 11.7327
1 -11.4682 -15.2827 11.4587
2 -7.34075 -15.2792 11.4174
1 -3.77441 -15.1548 11.4819
2 -0.222163 -15.0142 11.3317
2 3.73392 -14.9131 11.5944
3 7.68235 -14.9726 11.4379
2 11.6883 -14.8117 11.7286
2 -15.6412 -11.3679 11.4662
2 -11.5838 -11.6164 11.5178
3 -7.76439 -11.5735 11.6365
3 -3.94706 -11.5153 11.6322
2 -0.0752715 -11.3046 11.5884
2 3.82984 -11.3566 11.6198
2 7.61234 -11.2861 11.4799
3 11.4365 -11.2832 11.4533
3 15.2033 -11.282 11.4853
3 -19.2434 -7.39801 11.5194
3 -15.1751 -7.70537 11.494
1 -11.6835 -7.76462 11.5591
2 -7.81111 -7.66405 11.5872
3 -3.88175 -7.63476 11.6091
1 -0.0517825 -7.59121 11.6533
3 3.8423 -7.66197 11.603
2 7.44901 -7.69308 11.6036
1 11.334 -7.41157 11.452
2 15.2609 -7.49711 11.3575
2 19.4704 -7.15024 11.3154
2 -20.9035 -5.35148 11.9108
2 -15.3903 -4.00689 11.4973
2 -11.7982 -3.83551 11.6099
2 -7.75852 -3.70601 11.658
3 -3.92408 -3.70093 11.58
1 -0.111634 -3.97346 11.5866
2 3.61727 -3.81164 11.8077
3 7.52786 -3.86089 11.6608
1 11.4458 -3.60173 11.5642
2 15.2159 -3.69029 11.4245
2 20.3474 -4.72364 11.7211
2 -20.1776 -0.555458 12.1705
3 -15.6001 -0.105594 11.7895
2 -11.7576 -0.0867199 11.6876
3 -7.89273 -0.128109 11.5987
3 -3.96362 -0.153212 11.5237
2 -0.310282 -0.015948 11.3404
1 3.53647 -0.144397 11.6684
2 7.51276 -0.011521 11.648
3 11.447 -0.0838085 11.4816
3 15.2471 -0.061817 11.3782
2 20.835 0.124865 12.9829
3 -19.1949 3.7038 11.5834
2 -15.5094 3.83381 11.8557
1 -11.6496 3.68295 11.5505
2 -8.04923 3.62044 11.4892
3 -3.98811 3.66931 11.4327
2 -0.269981 3.56243 11.4531
3 3.31927 3.55323 11.5599
2 7.47185 3.66641 11.5983
1 11.2133 3.66842 11.4006
2 15.0273 3.72741 11.5652
3 18.6405 3.79469 11.1995
1 -18.7242 7.90284 11.6756
3 -15.5858 7.60085 11.4944
3 -11.7373 7.70335 11.412
2 -7.95709 7.3136 11.4867
1 -3.95671 7.25823 11.3262
2 -0.176425 7.45901 11.3991
1 3.57369 7.5231 11.6274
3 7.444 7.42649 11.5756
1 11.0517 7.48903 11.5204
3 15.0491 7.86112 11.288
1 18.4843 7.7094 11.4578
3 -15.1736 11.6102 11.599
3 -11.5054 11.3593 11.6426
1 -7.71779 11.3386 11.3939
1 -3.95481 11.1432 11.451
2 -0.197494 11.06 11.3304
2 3.64373 11.1473 11.544
1 7.39898 11.2586 11.6143
2 10.9506 11.2409 11.4094
1 15.202 11.731 11.6467
2 -11.5464 15.4347 11.555
3 -7.66056 15.0964 11.4323
1 -3.94799 15.0845 11.552
3 -0.201216 14.85 11.7696
2 3.60122 14.9317 11.5936
3 7.34498 14.9075 11.485
1 11.4984 15.457 11.57
3 -7.73498 19.0729 11.4471
2 -4.28532 20.0563 12.0509
3 -0.146275 18.6713 11.6505
2 3.86102 19.0287 11.8488
3 7.55024 18.5328 11.5148
2 -7.71472 -15.3754 14.9711
3 -3.95156 -15.1911 15.1932
3 0.0568818 -15.2301 15.1997
3 3.78271 -15.1268 15.2423
2 7.65263 -14.8633 15.1906
2 -11.4276 -11.6015 15.426
2 -7.94492 -11.5083 15.4866
2 -3.99433 -11.5887 15.4007
3 -0.067321 -11.4675 15.4349
2 3.59325 -11.2265 15.2538
3 7.38031 -11.3795 15.3797
1 11.5711 -11.4148 15.7433
1 -15.4795 -7.97912 15.2762
1 -11.6614 -7.66451 15.3581
2 -7.8188 -7.66384 15.2916
2 -4.24626 -7.88305 15.3935
3 -0.099682 -7.71943 15.5228
2 3.70518 -7.58284 15.5042
2 7.47531 -7.56062 15.4383
1 11.373 -7.57655 15.2685
3 14.9798 -7.71863 15.2879
2 -15.7959 -3.86629 15.4944
2 -11.7398 -3.99319 15.4193
3 -7.98273 -3.98775 15.4927
3 -3.99974 -3.86837 15.4093
3 -0.31852 -3.87536 15.4388
3 3.55016 -3.77523 15.3833
3 7.46781 -3.82152 15.2609
3 11.3714 -3.8229 15.1569
3 15.1483 -3.67681 15.1699
1 -15.7256 -0.264672 15.3802
2 -11.688 -0.0577086 15.3629
3 -7.7795 -0.209055 15.3673
1 -4.18031 -0.082931 15.3613
3 -0.407406 -0.0228401 15.3697
2 3.50517 -0.15033 15.4328
3 7.51605 -0.0420005 15.2415
2 11.4414 -0.130049 15.4222
2 15.1063 -0.102385 15.0941
2 -16.0802 3.50617 15.514
1 -11.6285 3.47648 15.361
2 -7.95186 3.6377 15.3372
2 -4.10021 3.68462 15.2363
2 -0.270094 3.6116 15.4841
3 3.5044 3.52351 15.3777
2 7.55304 3.43467 15.2754
3 11.3566 3.65698 15.2895
1 15.8828 3.7452 16.0331
1 -15.4129 7.93226 15.4832
1 -11.9161 7.48213 15.4921
2 -7.95383 7.29852 15.2891
3 -4.01127 7.39194 15.3193
2 -0.310361 7.34224 15.4394
3 3.50603 7.50245 15.5077
1 7.27863 7.35811 15.3522
2 11.3507 7.46243 15.1922
3 14.9527 7.3602 15.2383
3 -11.627 11.7053 15.5374
1 -7.77563 11.0572 15.1801
1 -3.95759 11.099 15.1501
2 -0.29479 11.4218 15.3642
2 3.41561 11.2521 15.4291
2 7.33988 11.3332 15.2818
2 11.2823 11.2261 15.1585
2 -8.12478 15.4681 15.548
1 -4.09403 15.1077 15.3275
1 -0.499109 15.0915 15.4874
1 3.40275 15.3864 15.5636
1 7.84049 15.2899 15.6236
1 -7.86461 -11.5785 19.0048
2 -3.93431 -11.5451 19.078
2 -0.21407 -11.399 19.2632
3 3.57663 -11.2918 19.0868
3 7.55399 -11.1413 19.2529
2 -11.6114 -7.79875 19.0826
3 -7.86 -7.91008 19.1293
2 -4.2611 -7.64704 19.1582
1 -0.190618 -7.72871 19.2665
2 3.64697 -7.58407 19.1212
3 7.22224 -7.6914 18.9301
3 11.4455 -7.57813 19.0855
3 -11.8516 -3.86759 19.2377
2 -7.98218 -3.89725 19.246
1 -4.14275 -4.0422 19.2644
1 -0.273138 -3.93632 19.3101
2 3.58866 -3.97185 19.2984
1 7.4863 -3.75172 19.0778
3 11.4769 -3.89303 19.1714
1 -11.8191 -0.120775 19.3789
2 -8.11237 -0.181292 19.2723
3 -4.19168 -0.0798686 19.1697
2 -0.304502 -0.0465154 19.3431
3 3.51406 -0.0601802 19.2773
1 7.60859 0.00587956 19.272
2 11.2708 -0.0808986 19.3031
3 -11.7376 3.73828 19.2242
2 -7.99054 3.65477 19.1712
3 -4.37326 3.67486 19.4186
1 -0.504331 3.60588 19.3767
2 3.55837 3.64264 19.2287
3 7.54082 3.47446 19.1247
1 11.329 3.82602 19.1364
3 -11.7494 7.55718 18.9115
2 -8.01615 7.53455 19.1167
1 -4.3233 7.39703 19.276
3 -0.294213 7.40554 19.2249
2 3.46516 7.44024 19.2602
3 7.34448 7.38315 19.11
2 11.1369 7.58651 19.0646
1 -8.14938 11.3242 19.2243
1 -4.35621 11.3776 19.0936
1 -0.499409 11.3284 19.5761
2 3.59029 11.3526 19.0578
3 7.3603 11.434 18.8636
2 -0.258762 -7.77616 22.9857
3 -4.25888 -3.94154 22.8721
2 -0.495626 -3.91409 23.0569
2 3.58087 -3.95852 22.8079
2 -7.96269 -0.158971 22.9027
3 -4.35897 0.0247204 23.085
1 -0.399878 -0.228278 23.2017
1 3.34334 0.0710333 23.0112
1 7.16054 -0.0722034 22.8491
1 -4.41927 3.67845 23.3317
1 -0.646612 3.49118 23.0681
3 3.7291 3.68745 22.8469
2 -0.410941 7.22521 22.7986
1 -5.71412 -5.7217 -22.425
2 -2.12438 -5.87604 -22.8402
2 2.08602 -5.63001 -22.8339
2 5.69163 -6.05069 -22.8769
3 -5.46448 -1.79923 -22.6339
2 -2.0766 -1.89063 -22.8496
2 2.01143 -2.07512 -23.199
2 6.07056 -2.12996 -22.6589
2 -5.81828 1.74934 -22.6947
2 -2.01746 1.7708 -22.9492
1 1.81857 1.94741 -22.9204
3 5.58877 1.77204 -22.9912
2 -5.47078 5.71876 -22.7793
2 -1.99512 5.55626 -22.8993
2 1.99127 5.75625 -22.7488
3 5.73356 5.78375 -22.9615
1 -5.7245 -13.1827 -18.6537
3 -2.04419 -13.4243 -18.8175
2 2.06198 -13.297 -18.9903
1 6.02248 -13.3091 -18.8854
2 -9.50441 -9.50901 -18.9604
3 -5.64115 -9.55325 -18.9989
2 -1.69383 -9.77468 -19.014
2 2.14426 -9.53218 -18.8457
3 5.80208 -9.77296 -19.2219
2 9.61465 -10.0409 -19.16
1 -13.2385 -5.52958 -19.0024
2 -9.54008 -5.55216 -19.1702
1 -5.90658 -5.60046 -19.1584
2 -1.8427 -5.56164 -19.066
3 1.77334 -5.79146 -19.1915
2 5.78294 -5.61429 -19.0542
3 9.54342 -5.98152 -19.2838
2 13.6503 -5.84265 -19.2612
1 -13.2032 -1.83554 -18.8893
2 -9.31375 -1.82584 -18.8271