LAMMPS DATA FOR MEAM SIMULATION

    249   atoms
      2   atom types

  -17.86   17.86   xlo xhi
  -17.86   17.86   ylo yhi
  -17.86   17.86   zlo zhi

 Atoms

     1   2    -3.93151    -3.93151    -7.86303
     2   2     0.00000    -3.93151    -7.86303
     3   2     3.93151    -3.93151    -7.86303
     4   2    -3.93151     0.00000    -7.86303
     5   2     0.00000     0.00000    -7.86303
     6   2     3.93151     0.00000    -7.86303
     7   2    -3.93151     3.93151    -7.86303
     8   2     0.00000     3.93151    -7.86303
     9   2     3.93151     3.93151    -7.86303
    10   2    -3.93151    -7.86303    -3.93151
    11   2     0.00000    -7.86303    -3.93151
    12   2     3.93151    -7.86303    -3.93151
    13   2    -7.86303    -3.93151    -3.93151
    14   2    -3.93151    -3.93151    -3.93151
    15   2     0.00000    -3.93151    -3.93151
    16   2     3.93151    -3.93151    -3.93151
    17   2     7.86303    -3.93151    -3.93151
    18   2    -7.86303     0.00000    -3.93151
    19   2    -3.93151     0.00000    -3.93151
    20   2     0.00000     0.00000    -3.93151
    21   2     3.93151     0.00000    -3.93151
    22   2     7.86303     0.00000    -3.93151
    23   2    -7.86303     3.93151    -3.93151
    24   2    -3.93151     3.93151    -3.93151
    25   2     0.00000     3.93151    -3.93151
    26   2     3.93151     3.93151    -3.93151
    27   2     7.86303     3.93151    -3.93151
    28   2    -3.93151     7.86303    -3.93151
    29   2     0.00000     7.86303    -3.93151
    30   2     3.93151     7.86303    -3.93151
    31   2    -3.93151    -7.86303     0.00000
    32   2     0.00000    -7.86303     0.00000
    33   2     3.93151    -7.86303     0.00000
    34   2    -7.86303    -3.93151     0.00000
    35   2    -3.93151    -3.93151     0.00000
    36   2     0.00000    -3.93151     0.00000
    37   2     3.93151    -3.93151     0.00000
    38   2     7.86303    -3.93151     0.00000
    39   2    -7.86303     0.00000     0.00000
    40   2    -3.93151     0.00000     0.00000
    41   2     0.00000     0.00000     0.00000
    42   2     3.93151     0.00000     0.00000
    43   2     7.86303     0.00000     0.00000
    44   2    -7.86303     3.93151     0.00000
    45   2    -3.93151     3.93151     0.00000
    46   2     0.00000     3.93151     0.00000
    47   2     3.93151     3.93151     0.00000
    48   2     7.86303     3.93151     0.00000
    49   2    -3.93151     7.86303     0.00000
    50   2     0.00000     7.86303     0.00000
    51   2     3.93151     7.86303     0.00000
    52   2    -3.93151    -7.86303     3.93151
    53   2     0.00000    -7.86303     3.93151
    54   2     3.93151    -7.86303     3.93151
    55   2    -7.86303    -3.93151     3.93151
    56   2    -3.93151    -3.93151     3.93151
    57   2     0.00000    -3.93151     3.93151
    58   2     3.93151    -3.93151     3.93151
    59   2     7.86303    -3.93151     3.93151
    60   2    -7.86303     0.00000     3.93151
    61   2    -3.93151     0.00000     3.93151
    62   2     0.00000     0.00000     3.93151
    63   2     3.93151     0.00000     3.93151
    64   2     7.86303     0.00000     3.93151
    65   2    -7.86303     3.93151     3.93151
    66   2    -3.93151     3.93151     3.93151
    67   2     0.00000     3.93151     3.93151
    68   2     3.93151     3.93151     3.93151
    69   2     7.86303     3.93151     3.93151
    70   2    -3.93151     7.86303     3.93151
    71   2     0.00000     7.86303     3.93151
    72   2     3.93151     7.86303     3.93151
    73   2    -3.93151    -3.93151     7.86303
    74   2     0.00000    -3.93151     7.86303
    75   2     3.93151    -3.93151     7.86303
    76   2    -3.93151     0.00000     7.86303
    77   2     0.00000     0.00000     7.86303
    78   2     3.93151     0.00000     7.86303
    79   2    -3.93151     3.93151     7.86303
    80   2     0.00000     3.93151     7.86303
    81   2     3.93151     3.93151     7.86303
    82   2    -1.96576    -1.96576    -7.86303
    83   2     1.96576    -1.96576    -7.86303
    84   2    -1.96576     1.96576    -7.86303
    85   2     1.96576     1.96576    -7.86303
    86   2    -5.89727    -5.89727    -3.93151
    87   2    -1.96576    -5.89727    -3.93151
    88   2     1.96576    -5.89727    -3.93151
    89   2     5.89727    -5.89727    -3.93151
    90   2    -5.89727    -1.96576    -3.93151
    91   2    -1.96576    -1.96576    -3.93151
    92   2     1.96576    -1.96576    -3.93151
    93   2     5.89727    -1.96576    -3.93151
    94   2    -5.89727     1.96576    -3.93151
    95   2    -1.96576     1.96576    -3.93151
    96   2     1.96576     1.96576    -3.93151
    97   2     5.89727     1.96576    -3.93151
    98   2    -5.89727     5.89727    -3.93151
    99   2    -1.96576     5.89727    -3.93151
   100   2     1.96576     5.89727    -3.93151
   101   2     5.89727     5.89727    -3.93151
   102   2    -5.89727    -5.89727     0.00000
   103   2    -1.96576    -5.89727     0.00000
   104   2     1.96576    -5.89727     0.00000
   105   2     5.89727    -5.89727     0.00000
   106   2    -5.89727    -1.96576     0.00000
   107   2    -1.96576    -1.96576     0.00000
   108   2     1.96576    -1.96576     0.00000
   109   2     5.89727    -1.96576     0.00000
   110   2    -5.89727     1.96576     0.00000
   111   2    -1.96576     1.96576     0.00000
   112   2     1.96576     1.96576     0.00000
   113   2     5.89727     1.96576     0.00000
   114   2    -5.89727     5.89727     0.00000
   115   2    -1.96576     5.89727     0.00000
   116   2     1.96576     5.89727     0.00000
   117   2     5.89727     5.89727     0.00000
   118   2    -5.89727    -5.89727     3.93151
   119   2    -1.96576    -5.89727     3.93151
   120   2     1.96576    -5.89727     3.93151
   121   2     5.89727    -5.89727     3.93151
   122   2    -5.89727    -1.96576     3.93151
   123   2    -1.96576    -1.96576     3.93151
   124   2     1.96576    -1.96576     3.93151
   125   2     5.89727    -1.96576     3.93151
   126   2    -5.89727     1.96576     3.93151
   127   2    -1.96576     1.96576     3.93151
   128   2     1.96576     1.96576     3.93151
   129   2     5.89727     1.96576     3.93151
   130   2    -5.89727     5.89727     3.93151
   131   2    -1.96576     5.89727     3.93151
   132   2     1.96576     5.89727     3.93151
   133   2     5.89727     5.89727     3.93151
   134   2    -1.96576    -1.96576     7.86303
   135   2     1.96576    -1.96576     7.86303
   136   2    -1.96576     1.96576     7.86303
   137   2     1.96576     1.96576     7.86303
   138   2    -1.96576    -7.86303    -1.96576
   139   2     1.96576    -7.86303    -1.96576
   140   2    -1.96576    -7.86303     1.96576
   141   2     1.96576    -7.86303     1.96576
   142   2    -5.89727    -3.93151    -5.89727
   143   2    -1.96576    -3.93151    -5.89727
   144   2     1.96576    -3.93151    -5.89727
   145   2     5.89727    -3.93151    -5.89727
   146   2    -5.89727    -3.93151    -1.96576
   147   2    -1.96576    -3.93151    -1.96576
   148   2     1.96576    -3.93151    -1.96576
   149   2     5.89727    -3.93151    -1.96576
   150   2    -5.89727    -3.93151     1.96576
   151   2    -1.96576    -3.93151     1.96576
   152   2     1.96576    -3.93151     1.96576
   153   2     5.89727    -3.93151     1.96576
   154   2    -5.89727    -3.93151     5.89727
   155   2    -1.96576    -3.93151     5.89727
   156   2     1.96576    -3.93151     5.89727
   157   2     5.89727    -3.93151     5.89727
   158   2    -5.89727     0.00000    -5.89727
   159   2    -1.96576     0.00000    -5.89727
   160   2     1.96576     0.00000    -5.89727
   161   2     5.89727     0.00000    -5.89727
   162   2    -5.89727     0.00000    -1.96576
   163   2    -1.96576     0.00000    -1.96576
   164   2     1.96576     0.00000    -1.96576
   165   2     5.89727     0.00000    -1.96576
   166   2    -5.89727     0.00000     1.96576
   167   2    -1.96576     0.00000     1.96576
   168   2     1.96576     0.00000     1.96576
   169   2     5.89727     0.00000     1.96576
   170   2    -5.89727     0.00000     5.89727
   171   2    -1.96576     0.00000     5.89727
   172   2     1.96576     0.00000     5.89727
   173   2     5.89727     0.00000     5.89727
   174   2    -5.89727     3.93151    -5.89727
   175   2    -1.96576     3.93151    -5.89727
   176   2     1.96576     3.93151    -5.89727
   177   2     5.89727     3.93151    -5.89727
   178   2    -5.89727     3.93151    -1.96576
   179   2    -1.96576     3.93151    -1.96576
   180   2     1.96576     3.93151    -1.96576
   181   2     5.89727     3.93151    -1.96576
   182   2    -5.89727     3.93151     1.96576
   183   2    -1.96576     3.93151     1.96576
   184   2     1.96576     3.93151     1.96576
   185   2     5.89727     3.93151     1.96576
   186   2    -5.89727     3.93151     5.89727
   187   2    -1.96576     3.93151     5.89727
   188   2     1.96576     3.93151     5.89727
   189   2     5.89727     3.93151     5.89727
   190   2    -1.96576     7.86303    -1.96576
   191   2     1.96576     7.86303    -1.96576
   192   2    -1.96576     7.86303     1.96576
   193   2     1.96576     7.86303     1.96576
   194   2    -7.86303    -1.96576    -1.96576
   195   2    -7.86303     1.96576    -1.96576
   196   2    -7.86303    -1.96576     1.96576
   197   2    -7.86303     1.96576     1.96576
   198   2    -3.93151    -5.89727    -5.89727
   199   2    -3.93151    -1.96576    -5.89727
   200   2    -3.93151     1.96576    -5.89727
   201   2    -3.93151     5.89727    -5.89727
   202   2    -3.93151    -5.89727    -1.96576
   203   2    -3.93151    -1.96576    -1.96576
   204   2    -3.93151     1.96576    -1.96576
   205   2    -3.93151     5.89727    -1.96576
   206   2    -3.93151    -5.89727     1.96576
   207   2    -3.93151    -1.96576     1.96576
   208   2    -3.93151     1.96576     1.96576
   209   2    -3.93151     5.89727     1.96576
   210   2    -3.93151    -5.89727     5.89727
   211   2    -3.93151    -1.96576     5.89727
   212   2    -3.93151     1.96576     5.89727
   213   2    -3.93151     5.89727     5.89727
   214   2     0.00000    -5.89727    -5.89727
   215   2     0.00000    -1.96576    -5.89727
   216   2     0.00000     1.96576    -5.89727
   217   2     0.00000     5.89727    -5.89727
   218   2     0.00000    -5.89727    -1.96576
   219   2     0.00000    -1.96576    -1.96576
   220   2     0.00000     1.96576    -1.96576
   221   2     0.00000     5.89727    -1.96576
   222   2     0.00000    -5.89727     1.96576
   223   2     0.00000    -1.96576     1.96576
   224   2     0.00000     1.96576     1.96576
   225   2     0.00000     5.89727     1.96576
   226   2     0.00000    -5.89727     5.89727
   227   2     0.00000    -1.96576     5.89727
   228   2     0.00000     1.96576     5.89727
   229   2     0.00000     5.89727     5.89727
   230   2     3.93151    -5.89727    -5.89727
   231   2     3.93151    -1.96576    -5.89727
   232   2     3.93151     1.96576    -5.89727
   233   2     3.93151     5.89727    -5.89727
   234   2     3.93151    -5.89727    -1.96576
   235   2     3.93151    -1.96576    -1.96576
   236   2     3.93151     1.96576    -1.96576
   237   2     3.93151     5.89727    -1.96576
   238   2     3.93151    -5.89727     1.96576
   239   2     3.93151    -1.96576     1.96576
   240   2     3.93151     1.96576     1.96576
   241   2     3.93151     5.89727     1.96576
   242   2     3.93151    -5.89727     5.89727
   243   2     3.93151    -1.96576     5.89727
   244   2     3.93151     1.96576     5.89727
   245   2     3.93151     5.89727     5.89727
   246   2     7.86303    -1.96576    -1.96576
   247   2     7.86303     1.96576    -1.96576
   248   2     7.86303    -1.96576     1.96576
   249   2     7.86303     1.96576     1.96576
