LAMMPS DATA FOR MEAM SIMULATION

     43   atoms
      2   atom types

  -13.93   13.93   xlo xhi
  -13.93   13.93   ylo yhi
  -13.93   13.93   zlo zhi

 Atoms

     1   2     0.00000     0.00000    -3.93151
     2   2     0.00000    -3.93151     0.00000
     3   2    -3.93151     0.00000     0.00000
     4   2     0.00000     0.00000     0.00000
     5   2     3.93151     0.00000     0.00000
     6   2     0.00000     3.93151     0.00000
     7   2     0.00000     0.00000     3.93151
     8   2    -1.96576    -1.96576    -3.93151
     9   2     1.96576    -1.96576    -3.93151
    10   2    -1.96576     1.96576    -3.93151
    11   2     1.96576     1.96576    -3.93151
    12   2    -1.96576    -1.96576     0.00000
    13   2     1.96576    -1.96576     0.00000
    14   2    -1.96576     1.96576     0.00000
    15   2     1.96576     1.96576     0.00000
    16   2    -1.96576    -1.96576     3.93151
    17   2     1.96576    -1.96576     3.93151
    18   2    -1.96576     1.96576     3.93151
    19   2     1.96576     1.96576     3.93151
    20   2    -1.96576    -3.93151    -1.96576
    21   2     1.96576    -3.93151    -1.96576
    22   2    -1.96576    -3.93151     1.96576
    23   2     1.96576    -3.93151     1.96576
    24   2    -1.96576     0.00000    -1.96576
    25   2     1.96576     0.00000    -1.96576
    26   2    -1.96576     0.00000     1.96576
    27   2     1.96576     0.00000     1.96576
    28   2    -1.96576     3.93151    -1.96576
    29   2     1.96576     3.93151    -1.96576
    30   2    -1.96576     3.93151     1.96576
    31   2     1.96576     3.93151     1.96576
    32   2    -3.93151    -1.96576    -1.96576
    33   2    -3.93151     1.96576    -1.96576
    34   2    -3.93151    -1.96576     1.96576
    35   2    -3.93151     1.96576     1.96576
    36   2     0.00000    -1.96576    -1.96576
    37   2     0.00000     1.96576    -1.96576
    38   2     0.00000    -1.96576     1.96576
    39   2     0.00000     1.96576     1.96576
    40   2     3.93151    -1.96576    -1.96576
    41   2     3.93151     1.96576    -1.96576
    42   2     3.93151    -1.96576     1.96576
    43   2     3.93151     1.96576     1.96576
