LAMMPS DATA FOR MEAM SIMULATION

   4102   atoms
      3   atom types

  -33.55   33.55   xlo xhi
  -33.55   33.55   ylo yhi
  -33.55   33.55   zlo zhi

 Atoms

     1   3    -3.92444    -3.92444   -23.54666
     2   3     0.00000    -3.92444   -23.54666
     3   2     3.92444    -3.92444   -23.54666
     4   1    -3.92444     0.00000   -23.54666
     5   3     0.00000     0.00000   -23.54666
     6   3     3.92444     0.00000   -23.54666
     7   3    -3.92444     3.92444   -23.54666
     8   3     0.00000     3.92444   -23.54666
     9   3     3.92444     3.92444   -23.54666
    10   1    -7.84889   -11.77333   -19.62221
    11   3    -3.92444   -11.77333   -19.62221
    12   3     3.92444   -11.77333   -19.62221
    13   2     7.84889   -11.77333   -19.62221
    14   2    -7.84889    -7.84889   -19.62221
    15   3    -3.92444    -7.84889   -19.62221
    16   1     0.00000    -7.84889   -19.62221
    17   2     3.92444    -7.84889   -19.62221
    18   3     7.84889    -7.84889   -19.62221
    19   3   -11.77333    -3.92444   -19.62221
    20   3    -7.84889    -3.92444   -19.62221
    21   1    -3.92444    -3.92444   -19.62221
    22   2     0.00000    -3.92444   -19.62221
    23   1     3.92444    -3.92444   -19.62221
    24   1     7.84889    -3.92444   -19.62221
    25   1    11.77333    -3.92444   -19.62221
    26   1   -11.77333     0.00000   -19.62221
    27   2    -7.84889     0.00000   -19.62221
    28   1    -3.92444     0.00000   -19.62221
    29   1     0.00000     0.00000   -19.62221
    30   3     3.92444     0.00000   -19.62221
    31   3     7.84889     0.00000   -19.62221
    32   1    11.77333     0.00000   -19.62221
    33   1   -11.77333     3.92444   -19.62221
    34   3    -7.84889     3.92444   -19.62221
    35   2    -3.92444     3.92444   -19.62221
    36   3     0.00000     3.92444   -19.62221
    37   2     3.92444     3.92444   -19.62221
    38   3     7.84889     3.92444   -19.62221
    39   3    11.77333     3.92444   -19.62221
    40   2   -11.77333     7.84889   -19.62221
    41   3    -7.84889     7.84889   -19.62221
    42   3    -3.92444     7.84889   -19.62221
    43   3     0.00000     7.84889   -19.62221
    44   1     3.92444     7.84889   -19.62221
    45   3     7.84889     7.84889   -19.62221
    46   3    11.77333     7.84889   -19.62221
    47   3    -3.92444    11.77333   -19.62221
    48   3     0.00000    11.77333   -19.62221
    49   1     3.92444    11.77333   -19.62221
    50   3     7.84889    11.77333   -19.62221
    51   3    -7.84889   -15.69777   -15.69777
    52   3    -3.92444   -15.69777   -15.69777
    53   3     0.00000   -15.69777   -15.69777
    54   3     3.92444   -15.69777   -15.69777
    55   3     7.84889   -15.69777   -15.69777
    56   2   -11.77333   -11.77333   -15.69777
    57   1    -7.84889   -11.77333   -15.69777
    58   1    -3.92444   -11.77333   -15.69777
    59   2     0.00000   -11.77333   -15.69777
    60   2     3.92444   -11.77333   -15.69777
    61   2     7.84889   -11.77333   -15.69777
    62   3    11.77333   -11.77333   -15.69777
    63   3   -11.77333    -7.84889   -15.69777
    64   1    -7.84889    -7.84889   -15.69777
    65   2    -3.92444    -7.84889   -15.69777
    66   1     0.00000    -7.84889   -15.69777
    67   1     3.92444    -7.84889   -15.69777
    68   2     7.84889    -7.84889   -15.69777
    69   1    11.77333    -7.84889   -15.69777
    70   3    15.69777    -7.84889   -15.69777
    71   2   -15.69777    -3.92444   -15.69777
    72   1   -11.77333    -3.92444   -15.69777
    73   2    -7.84889    -3.92444   -15.69777
    74   2    -3.92444    -3.92444   -15.69777
    75   2     0.00000    -3.92444   -15.69777
    76   2     3.92444    -3.92444   -15.69777
    77   1     7.84889    -3.92444   -15.69777
    78   2    11.77333    -3.92444   -15.69777
    79   2    15.69777    -3.92444   -15.69777
    80   3   -15.69777     0.00000   -15.69777
    81   2   -11.77333     0.00000   -15.69777
    82   2    -7.84889     0.00000   -15.69777
    83   3    -3.92444     0.00000   -15.69777
    84   2     0.00000     0.00000   -15.69777
    85   2     3.92444     0.00000   -15.69777
    86   2     7.84889     0.00000   -15.69777
    87   2    11.77333     0.00000   -15.69777
    88   2    15.69777     0.00000   -15.69777
    89   3   -15.69777     3.92444   -15.69777
    90   2   -11.77333     3.92444   -15.69777
    91   2    -7.84889     3.92444   -15.69777
    92   2    -3.92444     3.92444   -15.69777
    93   1     0.00000     3.92444   -15.69777
    94   3     3.92444     3.92444   -15.69777
    95   1     7.84889     3.92444   -15.69777
    96   2    11.77333     3.92444   -15.69777
    97   3    15.69777     3.92444   -15.69777
    98   3   -15.69777     7.84889   -15.69777
    99   3   -11.77333     7.84889   -15.69777
   100   2    -7.84889     7.84889   -15.69777
   101   2    -3.92444     7.84889   -15.69777
   102   2     0.00000     7.84889   -15.69777
   103   1     3.92444     7.84889   -15.69777
   104   3     7.84889     7.84889   -15.69777
   105   2    11.77333     7.84889   -15.69777
   106   2    15.69777     7.84889   -15.69777
   107   3   -11.77333    11.77333   -15.69777
   108   1    -7.84889    11.77333   -15.69777
   109   2    -3.92444    11.77333   -15.69777
   110   2     0.00000    11.77333   -15.69777
   111   1     3.92444    11.77333   -15.69777
   112   3     7.84889    11.77333   -15.69777
   113   3    11.77333    11.77333   -15.69777
   114   3    -7.84889    15.69777   -15.69777
   115   1    -3.92444    15.69777   -15.69777
   116   2     0.00000    15.69777   -15.69777
   117   3     3.92444    15.69777   -15.69777
   118   2     7.84889    15.69777   -15.69777
   119   3    -7.84889   -19.62221   -11.77333
   120   3    -3.92444   -19.62221   -11.77333
   121   3     0.00000   -19.62221   -11.77333
   122   2     3.92444   -19.62221   -11.77333
   123   3     7.84889   -19.62221   -11.77333
   124   3   -11.77333   -15.69777   -11.77333
   125   3    -7.84889   -15.69777   -11.77333
   126   2    -3.92444   -15.69777   -11.77333
   127   1     0.00000   -15.69777   -11.77333
   128   2     3.92444   -15.69777   -11.77333
   129   2     7.84889   -15.69777   -11.77333
   130   2    11.77333   -15.69777   -11.77333
   131   2   -15.69777   -11.77333   -11.77333
   132   3   -11.77333   -11.77333   -11.77333
   133   2    -7.84889   -11.77333   -11.77333
   134   2    -3.92444   -11.77333   -11.77333
   135   2     0.00000   -11.77333   -11.77333
   136   2     3.92444   -11.77333   -11.77333
   137   2     7.84889   -11.77333   -11.77333
   138   2    11.77333   -11.77333   -11.77333
   139   3    15.69777   -11.77333   -11.77333
   140   2   -19.62221    -7.84889   -11.77333
   141   2   -15.69777    -7.84889   -11.77333
   142   3   -11.77333    -7.84889   -11.77333
   143   2    -7.84889    -7.84889   -11.77333
   144   1    -3.92444    -7.84889   -11.77333
   145   1     0.00000    -7.84889   -11.77333
   146   2     3.92444    -7.84889   -11.77333
   147   1     7.84889    -7.84889   -11.77333
   148   2    11.77333    -7.84889   -11.77333
   149   1    15.69777    -7.84889   -11.77333
   150   3   -19.62221    -3.92444   -11.77333
   151   1   -15.69777    -3.92444   -11.77333
   152   2   -11.77333    -3.92444   -11.77333
   153   1    -7.84889    -3.92444   -11.77333
   154   2    -3.92444    -3.92444   -11.77333
   155   2     0.00000    -3.92444   -11.77333
   156   1     3.92444    -3.92444   -11.77333
   157   2     7.84889    -3.92444   -11.77333
   158   2    11.77333    -3.92444   -11.77333
   159   3    15.69777    -3.92444   -11.77333
   160   1    19.62221    -3.92444   -11.77333
   161   2   -19.62221     0.00000   -11.77333
   162   2   -15.69777     0.00000   -11.77333
   163   1   -11.77333     0.00000   -11.77333
   164   2    -7.84889     0.00000   -11.77333
   165   2    -3.92444     0.00000   -11.77333
   166   2     0.00000     0.00000   -11.77333
   167   2     3.92444     0.00000   -11.77333
   168   2     7.84889     0.00000   -11.77333
   169   2    11.77333     0.00000   -11.77333
   170   3    15.69777     0.00000   -11.77333
   171   3    19.62221     0.00000   -11.77333
   172   3   -19.62221     3.92444   -11.77333
   173   2   -15.69777     3.92444   -11.77333
   174   2   -11.77333     3.92444   -11.77333
   175   2    -7.84889     3.92444   -11.77333
   176   2    -3.92444     3.92444   -11.77333
   177   2     0.00000     3.92444   -11.77333
   178   2     3.92444     3.92444   -11.77333
   179   2     7.84889     3.92444   -11.77333
   180   1    11.77333     3.92444   -11.77333
   181   1    15.69777     3.92444   -11.77333
   182   3    19.62221     3.92444   -11.77333
   183   3   -19.62221     7.84889   -11.77333
   184   2   -15.69777     7.84889   -11.77333
   185   1   -11.77333     7.84889   -11.77333
   186   2    -7.84889     7.84889   -11.77333
   187   2    -3.92444     7.84889   -11.77333
   188   1     0.00000     7.84889   -11.77333
   189   2     3.92444     7.84889   -11.77333
   190   2     7.84889     7.84889   -11.77333
   191   2    11.77333     7.84889   -11.77333
   192   3    15.69777     7.84889   -11.77333
   193   3    19.62221     7.84889   -11.77333
   194   2   -15.69777    11.77333   -11.77333
   195   2   -11.77333    11.77333   -11.77333
   196   3    -7.84889    11.77333   -11.77333
   197   2    -3.92444    11.77333   -11.77333
   198   1     0.00000    11.77333   -11.77333
   199   1     3.92444    11.77333   -11.77333
   200   1     7.84889    11.77333   -11.77333
   201   3    11.77333    11.77333   -11.77333
   202   1    15.69777    11.77333   -11.77333
   203   2   -11.77333    15.69777   -11.77333
   204   2    -7.84889    15.69777   -11.77333
   205   2    -3.92444    15.69777   -11.77333
   206   1     0.00000    15.69777   -11.77333
   207   1     3.92444    15.69777   -11.77333
   208   3     7.84889    15.69777   -11.77333
   209   1    11.77333    15.69777   -11.77333
   210   2    -7.84889    19.62221   -11.77333
   211   2    -3.92444    19.62221   -11.77333
   212   3     0.00000    19.62221   -11.77333
   213   3     3.92444    19.62221   -11.77333
   214   3   -11.77333   -19.62221    -7.84889
   215   2    -7.84889   -19.62221    -7.84889
   216   3    -3.92444   -19.62221    -7.84889
   217   1     0.00000   -19.62221    -7.84889
   218   1     3.92444   -19.62221    -7.84889
   219   2     7.84889   -19.62221    -7.84889
   220   3    11.77333   -19.62221    -7.84889
   221   2   -15.69777   -15.69777    -7.84889
   222   3   -11.77333   -15.69777    -7.84889
   223   2    -7.84889   -15.69777    -7.84889
   224   1    -3.92444   -15.69777    -7.84889
   225   3     0.00000   -15.69777    -7.84889
   226   1     3.92444   -15.69777    -7.84889
   227   2     7.84889   -15.69777    -7.84889
   228   2    11.77333   -15.69777    -7.84889
   229   3    15.69777   -15.69777    -7.84889
   230   1   -19.62221   -11.77333    -7.84889
   231   3   -15.69777   -11.77333    -7.84889
   232   2   -11.77333   -11.77333    -7.84889
   233   1    -7.84889   -11.77333    -7.84889
   234   1    -3.92444   -11.77333    -7.84889
   235   1     0.00000   -11.77333    -7.84889
   236   2     3.92444   -11.77333    -7.84889
   237   2     7.84889   -11.77333    -7.84889
   238   2    11.77333   -11.77333    -7.84889
   239   2    15.69777   -11.77333    -7.84889
   240   3    19.62221   -11.77333    -7.84889
   241   2   -19.62221    -7.84889    -7.84889
   242   3   -15.69777    -7.84889    -7.84889
   243   2   -11.77333    -7.84889    -7.84889
   244   2    -7.84889    -7.84889    -7.84889
   245   1    -3.92444    -7.84889    -7.84889
   246   1     0.00000    -7.84889    -7.84889
   247   1     3.92444    -7.84889    -7.84889
   248   1     7.84889    -7.84889    -7.84889
   249   1    11.77333    -7.84889    -7.84889
   250   1    15.69777    -7.84889    -7.84889
   251   3    19.62221    -7.84889    -7.84889
   252   3   -19.62221    -3.92444    -7.84889
   253   2   -15.69777    -3.92444    -7.84889
   254   2   -11.77333    -3.92444    -7.84889
   255   2    -7.84889    -3.92444    -7.84889
   256   2    -3.92444    -3.92444    -7.84889
   257   1     0.00000    -3.92444    -7.84889
   258   2     3.92444    -3.92444    -7.84889
   259   2     7.84889    -3.92444    -7.84889
   260   2    11.77333    -3.92444    -7.84889
   261   1    15.69777    -3.92444    -7.84889
   262   2    19.62221    -3.92444    -7.84889
   263   2   -19.62221     0.00000    -7.84889
   264   2   -15.69777     0.00000    -7.84889
   265   1   -11.77333     0.00000    -7.84889
   266   1    -7.84889     0.00000    -7.84889
   267   1    -3.92444     0.00000    -7.84889
   268   3     0.00000     0.00000    -7.84889
   269   2     3.92444     0.00000    -7.84889
   270   1     7.84889     0.00000    -7.84889
   271   1    11.77333     0.00000    -7.84889
   272   2    15.69777     0.00000    -7.84889
   273   1    19.62221     0.00000    -7.84889
   274   2   -19.62221     3.92444    -7.84889
   275   2   -15.69777     3.92444    -7.84889
   276   2   -11.77333     3.92444    -7.84889
   277   2    -7.84889     3.92444    -7.84889
   278   1    -3.92444     3.92444    -7.84889
   279   2     0.00000     3.92444    -7.84889
   280   2     3.92444     3.92444    -7.84889
   281   2     7.84889     3.92444    -7.84889
   282   2    11.77333     3.92444    -7.84889
   283   1    15.69777     3.92444    -7.84889
   284   1    19.62221     3.92444    -7.84889
   285   3   -19.62221     7.84889    -7.84889
   286   1   -15.69777     7.84889    -7.84889
   287   1   -11.77333     7.84889    -7.84889
   288   1    -7.84889     7.84889    -7.84889
   289   2    -3.92444     7.84889    -7.84889
   290   2     0.00000     7.84889    -7.84889
   291   2     3.92444     7.84889    -7.84889
   292   1     7.84889     7.84889    -7.84889
   293   2    11.77333     7.84889    -7.84889
   294   2    15.69777     7.84889    -7.84889
   295   3    19.62221     7.84889    -7.84889
   296   3   -19.62221    11.77333    -7.84889
   297   2   -15.69777    11.77333    -7.84889
   298   1   -11.77333    11.77333    -7.84889
   299   1    -7.84889    11.77333    -7.84889
   300   1    -3.92444    11.77333    -7.84889
   301   1     0.00000    11.77333    -7.84889
   302   2     3.92444    11.77333    -7.84889
   303   1     7.84889    11.77333    -7.84889
   304   3    11.77333    11.77333    -7.84889
   305   3    15.69777    11.77333    -7.84889
   306   2    19.62221    11.77333    -7.84889
   307   1   -15.69777    15.69777    -7.84889
   308   2   -11.77333    15.69777    -7.84889
   309   1    -7.84889    15.69777    -7.84889
   310   1    -3.92444    15.69777    -7.84889
   311   1     0.00000    15.69777    -7.84889
   312   1     3.92444    15.69777    -7.84889
   313   1     7.84889    15.69777    -7.84889
   314   3    11.77333    15.69777    -7.84889
   315   3    15.69777    15.69777    -7.84889
   316   3   -11.77333    19.62221    -7.84889
   317   1    -7.84889    19.62221    -7.84889
   318   1    -3.92444    19.62221    -7.84889
   319   1     0.00000    19.62221    -7.84889
   320   3     3.92444    19.62221    -7.84889
   321   3     7.84889    19.62221    -7.84889
   322   3    11.77333    19.62221    -7.84889
   323   3     0.00000    23.54666    -7.84889
   324   3    -3.92444   -23.54666    -3.92444
   325   3     0.00000   -23.54666    -3.92444
   326   3     3.92444   -23.54666    -3.92444
   327   3   -11.77333   -19.62221    -3.92444
   328   1    -7.84889   -19.62221    -3.92444
   329   2    -3.92444   -19.62221    -3.92444
   330   1     0.00000   -19.62221    -3.92444
   331   3     3.92444   -19.62221    -3.92444
   332   2     7.84889   -19.62221    -3.92444
   333   2    11.77333   -19.62221    -3.92444
   334   1   -15.69777   -15.69777    -3.92444
   335   1   -11.77333   -15.69777    -3.92444
   336   2    -7.84889   -15.69777    -3.92444
   337   1    -3.92444   -15.69777    -3.92444
   338   2     0.00000   -15.69777    -3.92444
   339   2     3.92444   -15.69777    -3.92444
   340   1     7.84889   -15.69777    -3.92444
   341   1    11.77333   -15.69777    -3.92444
   342   3    15.69777   -15.69777    -3.92444
   343   3   -19.62221   -11.77333    -3.92444
   344   3   -15.69777   -11.77333    -3.92444
   345   2   -11.77333   -11.77333    -3.92444
   346   2    -7.84889   -11.77333    -3.92444
   347   2    -3.92444   -11.77333    -3.92444
   348   3     0.00000   -11.77333    -3.92444
   349   1     3.92444   -11.77333    -3.92444
   350   2     7.84889   -11.77333    -3.92444
   351   2    11.77333   -11.77333    -3.92444
   352   2    15.69777   -11.77333    -3.92444
   353   3    19.62221   -11.77333    -3.92444
   354   2   -19.62221    -7.84889    -3.92444
   355   2   -15.69777    -7.84889    -3.92444
   356   1   -11.77333    -7.84889    -3.92444
   357   3    -7.84889    -7.84889    -3.92444
   358   2    -3.92444    -7.84889    -3.92444
   359   2     0.00000    -7.84889    -3.92444
   360   2     3.92444    -7.84889    -3.92444
   361   1     7.84889    -7.84889    -3.92444
   362   2    11.77333    -7.84889    -3.92444
   363   2    15.69777    -7.84889    -3.92444
   364   3    19.62221    -7.84889    -3.92444
   365   3   -23.54666    -3.92444    -3.92444
   366   3   -19.62221    -3.92444    -3.92444
   367   1   -15.69777    -3.92444    -3.92444
   368   2   -11.77333    -3.92444    -3.92444
   369   2    -7.84889    -3.92444    -3.92444
   370   1    -3.92444    -3.92444    -3.92444
   371   2     0.00000    -3.92444    -3.92444
   372   2     3.92444    -3.92444    -3.92444
   373   2     7.84889    -3.92444    -3.92444
   374   1    11.77333    -3.92444    -3.92444
   375   1    15.69777    -3.92444    -3.92444
   376   1    19.62221    -3.92444    -3.92444
   377   3   -23.54666     0.00000    -3.92444
   378   2   -19.62221     0.00000    -3.92444
   379   2   -15.69777     0.00000    -3.92444
   380   2   -11.77333     0.00000    -3.92444
   381   1    -7.84889     0.00000    -3.92444
   382   2    -3.92444     0.00000    -3.92444
   383   1     0.00000     0.00000    -3.92444
   384   1     3.92444     0.00000    -3.92444
   385   2     7.84889     0.00000    -3.92444
   386   1    11.77333     0.00000    -3.92444
   387   2    15.69777     0.00000    -3.92444
   388   2    19.62221     0.00000    -3.92444
   389   3    23.54666     0.00000    -3.92444
   390   1   -19.62221     3.92444    -3.92444
   391   1   -15.69777     3.92444    -3.92444
   392   1   -11.77333     3.92444    -3.92444
   393   1    -7.84889     3.92444    -3.92444
   394   1    -3.92444     3.92444    -3.92444
   395   1     0.00000     3.92444    -3.92444
   396   3     3.92444     3.92444    -3.92444
   397   2     7.84889     3.92444    -3.92444
   398   3    11.77333     3.92444    -3.92444
   399   1    15.69777     3.92444    -3.92444
   400   3    19.62221     3.92444    -3.92444
   401   3    23.54666     3.92444    -3.92444
   402   2   -19.62221     7.84889    -3.92444
   403   2   -15.69777     7.84889    -3.92444
   404   2   -11.77333     7.84889    -3.92444
   405   3    -7.84889     7.84889    -3.92444
   406   2    -3.92444     7.84889    -3.92444
   407   2     0.00000     7.84889    -3.92444
   408   2     3.92444     7.84889    -3.92444
   409   1     7.84889     7.84889    -3.92444
   410   2    11.77333     7.84889    -3.92444
   411   2    15.69777     7.84889    -3.92444
   412   3    19.62221     7.84889    -3.92444
   413   2   -19.62221    11.77333    -3.92444
   414   1   -15.69777    11.77333    -3.92444
   415   1   -11.77333    11.77333    -3.92444
   416   1    -7.84889    11.77333    -3.92444
   417   3    -3.92444    11.77333    -3.92444
   418   1     0.00000    11.77333    -3.92444
   419   1     3.92444    11.77333    -3.92444
   420   2     7.84889    11.77333    -3.92444
   421   1    11.77333    11.77333    -3.92444
   422   2    15.69777    11.77333    -3.92444
   423   3    19.62221    11.77333    -3.92444
   424   1   -15.69777    15.69777    -3.92444
   425   1   -11.77333    15.69777    -3.92444
   426   1    -7.84889    15.69777    -3.92444
   427   2    -3.92444    15.69777    -3.92444
   428   1     0.00000    15.69777    -3.92444
   429   2     3.92444    15.69777    -3.92444
   430   2     7.84889    15.69777    -3.92444
   431   2    11.77333    15.69777    -3.92444
   432   2    15.69777    15.69777    -3.92444
   433   3   -11.77333    19.62221    -3.92444
   434   2    -7.84889    19.62221    -3.92444
   435   2    -3.92444    19.62221    -3.92444
   436   1     0.00000    19.62221    -3.92444
   437   1     3.92444    19.62221    -3.92444
   438   2     7.84889    19.62221    -3.92444
   439   2    11.77333    19.62221    -3.92444
   440   3    -3.92444    23.54666    -3.92444
   441   1     0.00000    23.54666    -3.92444
   442   3     3.92444    23.54666    -3.92444
   443   2    -3.92444   -23.54666     0.00000
   444   3     0.00000   -23.54666     0.00000
   445   3     3.92444   -23.54666     0.00000
   446   3     7.84889   -23.54666     0.00000
   447   2   -11.77333   -19.62221     0.00000
   448   1    -7.84889   -19.62221     0.00000
   449   3    -3.92444   -19.62221     0.00000
   450   2     0.00000   -19.62221     0.00000
   451   3     3.92444   -19.62221     0.00000
   452   2     7.84889   -19.62221     0.00000
   453   3    11.77333   -19.62221     0.00000
   454   3   -15.69777   -15.69777     0.00000
   455   1   -11.77333   -15.69777     0.00000
   456   3    -7.84889   -15.69777     0.00000
   457   2    -3.92444   -15.69777     0.00000
   458   1     0.00000   -15.69777     0.00000
   459   1     3.92444   -15.69777     0.00000
   460   1     7.84889   -15.69777     0.00000
   461   1    11.77333   -15.69777     0.00000
   462   3    15.69777   -15.69777     0.00000
   463   3   -19.62221   -11.77333     0.00000
   464   2   -15.69777   -11.77333     0.00000
   465   1   -11.77333   -11.77333     0.00000
   466   2    -7.84889   -11.77333     0.00000
   467   2    -3.92444   -11.77333     0.00000
   468   1     0.00000   -11.77333     0.00000
   469   2     3.92444   -11.77333     0.00000
   470   1     7.84889   -11.77333     0.00000
   471   2    11.77333   -11.77333     0.00000
   472   3    15.69777   -11.77333     0.00000
   473   2    19.62221   -11.77333     0.00000
   474   2   -19.62221    -7.84889     0.00000
   475   1   -15.69777    -7.84889     0.00000
   476   1   -11.77333    -7.84889     0.00000
   477   2    -7.84889    -7.84889     0.00000
   478   1    -3.92444    -7.84889     0.00000
   479   2     0.00000    -7.84889     0.00000
   480   2     3.92444    -7.84889     0.00000
   481   1     7.84889    -7.84889     0.00000
   482   2    11.77333    -7.84889     0.00000
   483   3    15.69777    -7.84889     0.00000
   484   1    19.62221    -7.84889     0.00000
   485   3   -23.54666    -3.92444     0.00000
   486   1   -19.62221    -3.92444     0.00000
   487   1   -15.69777    -3.92444     0.00000
   488   2   -11.77333    -3.92444     0.00000
   489   2    -7.84889    -3.92444     0.00000
   490   2    -3.92444    -3.92444     0.00000
   491   3     0.00000    -3.92444     0.00000
   492   2     3.92444    -3.92444     0.00000
   493   1     7.84889    -3.92444     0.00000
   494   1    11.77333    -3.92444     0.00000
   495   2    15.69777    -3.92444     0.00000
   496   1    19.62221    -3.92444     0.00000
   497   3    23.54666    -3.92444     0.00000
   498   3   -23.54666     0.00000     0.00000
   499   1   -19.62221     0.00000     0.00000
   500   1   -15.69777     0.00000     0.00000
   501   2   -11.77333     0.00000     0.00000
   502   2    -7.84889     0.00000     0.00000
   503   2    -3.92444     0.00000     0.00000
   504   1     0.00000     0.00000     0.00000
   505   2     3.92444     0.00000     0.00000
   506   1     7.84889     0.00000     0.00000
   507   1    11.77333     0.00000     0.00000
   508   2    15.69777     0.00000     0.00000
   509   3    19.62221     0.00000     0.00000
   510   2    23.54666     0.00000     0.00000
   511   1   -23.54666     3.92444     0.00000
   512   2   -19.62221     3.92444     0.00000
   513   1   -15.69777     3.92444     0.00000
   514   2   -11.77333     3.92444     0.00000
   515   2    -7.84889     3.92444     0.00000
   516   1    -3.92444     3.92444     0.00000
   517   1     0.00000     3.92444     0.00000
   518   1     3.92444     3.92444     0.00000
   519   2     7.84889     3.92444     0.00000
   520   1    11.77333     3.92444     0.00000
   521   3    15.69777     3.92444     0.00000
   522   1    19.62221     3.92444     0.00000
   523   2    23.54666     3.92444     0.00000
   524   2   -19.62221     7.84889     0.00000
   525   2   -15.69777     7.84889     0.00000
   526   2   -11.77333     7.84889     0.00000
   527   2    -7.84889     7.84889     0.00000
   528   1    -3.92444     7.84889     0.00000
   529   1     0.00000     7.84889     0.00000
   530   2     3.92444     7.84889     0.00000
   531   2     7.84889     7.84889     0.00000
   532   1    11.77333     7.84889     0.00000
   533   2    15.69777     7.84889     0.00000
   534   3    19.62221     7.84889     0.00000
   535   3   -19.62221    11.77333     0.00000
   536   1   -15.69777    11.77333     0.00000
   537   2   -11.77333    11.77333     0.00000
   538   2    -7.84889    11.77333     0.00000
   539   2    -3.92444    11.77333     0.00000
   540   1     0.00000    11.77333     0.00000
   541   1     3.92444    11.77333     0.00000
   542   3     7.84889    11.77333     0.00000
   543   2    11.77333    11.77333     0.00000
   544   1    15.69777    11.77333     0.00000
   545   3    19.62221    11.77333     0.00000
   546   2   -15.69777    15.69777     0.00000
   547   1   -11.77333    15.69777     0.00000
   548   1    -7.84889    15.69777     0.00000
   549   2    -3.92444    15.69777     0.00000
   550   1     0.00000    15.69777     0.00000
   551   1     3.92444    15.69777     0.00000
   552   1     7.84889    15.69777     0.00000
   553   3    11.77333    15.69777     0.00000
   554   3    15.69777    15.69777     0.00000
   555   3   -11.77333    19.62221     0.00000
   556   1    -7.84889    19.62221     0.00000
   557   2    -3.92444    19.62221     0.00000
   558   3     0.00000    19.62221     0.00000
   559   2     3.92444    19.62221     0.00000
   560   3     7.84889    19.62221     0.00000
   561   3    11.77333    19.62221     0.00000
   562   3    -7.84889    23.54666     0.00000
   563   2    -3.92444    23.54666     0.00000
   564   3     3.92444    23.54666     0.00000
   565   2    -3.92444   -23.54666     3.92444
   566   3     0.00000   -23.54666     3.92444
   567   3     3.92444   -23.54666     3.92444
   568   1   -11.77333   -19.62221     3.92444
   569   3    -7.84889   -19.62221     3.92444
   570   3    -3.92444   -19.62221     3.92444
   571   1     0.00000   -19.62221     3.92444
   572   3     3.92444   -19.62221     3.92444
   573   2     7.84889   -19.62221     3.92444
   574   3    11.77333   -19.62221     3.92444
   575   1   -15.69777   -15.69777     3.92444
   576   1   -11.77333   -15.69777     3.92444
   577   2    -7.84889   -15.69777     3.92444
   578   1    -3.92444   -15.69777     3.92444
   579   1     0.00000   -15.69777     3.92444
   580   2     3.92444   -15.69777     3.92444
   581   3     7.84889   -15.69777     3.92444
   582   1    11.77333   -15.69777     3.92444
   583   2    15.69777   -15.69777     3.92444
   584   3   -19.62221   -11.77333     3.92444
   585   1   -15.69777   -11.77333     3.92444
   586   2   -11.77333   -11.77333     3.92444
   587   2    -7.84889   -11.77333     3.92444
   588   2    -3.92444   -11.77333     3.92444
   589   1     0.00000   -11.77333     3.92444
   590   2     3.92444   -11.77333     3.92444
   591   1     7.84889   -11.77333     3.92444
   592   1    11.77333   -11.77333     3.92444
   593   2    15.69777   -11.77333     3.92444
   594   3    19.62221   -11.77333     3.92444
   595   2   -19.62221    -7.84889     3.92444
   596   1   -15.69777    -7.84889     3.92444
   597   2   -11.77333    -7.84889     3.92444
   598   2    -7.84889    -7.84889     3.92444
   599   2    -3.92444    -7.84889     3.92444
   600   2     0.00000    -7.84889     3.92444
   601   2     3.92444    -7.84889     3.92444
   602   1     7.84889    -7.84889     3.92444
   603   2    11.77333    -7.84889     3.92444
   604   1    15.69777    -7.84889     3.92444
   605   2    19.62221    -7.84889     3.92444
   606   2   -19.62221    -3.92444     3.92444
   607   1   -15.69777    -3.92444     3.92444
   608   1   -11.77333    -3.92444     3.92444
   609   1    -7.84889    -3.92444     3.92444
   610   2    -3.92444    -3.92444     3.92444
   611   1     0.00000    -3.92444     3.92444
   612   2     3.92444    -3.92444     3.92444
   613   2     7.84889    -3.92444     3.92444
   614   2    11.77333    -3.92444     3.92444
   615   2    15.69777    -3.92444     3.92444
   616   1    19.62221    -3.92444     3.92444
   617   2    23.54666    -3.92444     3.92444
   618   3   -23.54666     0.00000     3.92444
   619   2   -19.62221     0.00000     3.92444
   620   1   -15.69777     0.00000     3.92444
   621   2   -11.77333     0.00000     3.92444
   622   2    -7.84889     0.00000     3.92444
   623   2    -3.92444     0.00000     3.92444
   624   2     0.00000     0.00000     3.92444
   625   1     3.92444     0.00000     3.92444
   626   1     7.84889     0.00000     3.92444
   627   2    11.77333     0.00000     3.92444
   628   2    15.69777     0.00000     3.92444
   629   1    19.62221     0.00000     3.92444
   630   3    23.54666     0.00000     3.92444
   631   3   -23.54666     3.92444     3.92444
   632   2   -19.62221     3.92444     3.92444
   633   2   -15.69777     3.92444     3.92444
   634   1   -11.77333     3.92444     3.92444