LAMMPS DATA FOR MEAM SIMULATION

   3864   atoms
      3   atom types

  -33.55   33.55   xlo xhi
  -33.55   33.55   ylo yhi
  -33.55   33.55   zlo zhi

 Atoms

     1   1    -3.92444    -3.92444   -23.54666
     2   3     3.92444     0.00000   -23.54666
     3   3     7.84889     0.00000   -23.54666
     4   3     0.00000     3.92444   -23.54666
     5   3     3.92444     3.92444   -23.54666
     6   3     0.00000     7.84889   -23.54666
     7   3    -3.92444   -11.77333   -19.62221
     8   2     0.00000   -11.77333   -19.62221
     9   3     3.92444   -11.77333   -19.62221
    10   2    -3.92444    -7.84889   -19.62221
    11   3     0.00000    -7.84889   -19.62221
    12   3     3.92444    -7.84889   -19.62221
    13   3    11.77333    -7.84889   -19.62221
    14   3   -11.77333    -3.92444   -19.62221
    15   2    -7.84889    -3.92444   -19.62221
    16   3    -3.92444    -3.92444   -19.62221
    17   2     0.00000    -3.92444   -19.62221
    18   2     3.92444    -3.92444   -19.62221
    19   1     7.84889    -3.92444   -19.62221
    20   3    11.77333    -3.92444   -19.62221
    21   3   -11.77333     0.00000   -19.62221
    22   3    -7.84889     0.00000   -19.62221
    23   1    -3.92444     0.00000   -19.62221
    24   1     0.00000     0.00000   -19.62221
    25   3     3.92444     0.00000   -19.62221
    26   3     7.84889     0.00000   -19.62221
    27   3    11.77333     0.00000   -19.62221
    28   2   -11.77333     3.92444   -19.62221
    29   3    -7.84889     3.92444   -19.62221
    30   2    -3.92444     3.92444   -19.62221
    31   2     0.00000     3.92444   -19.62221
    32   2     3.92444     3.92444   -19.62221
    33   2     7.84889     3.92444   -19.62221
    34   1    11.77333     3.92444   -19.62221
    35   2   -11.77333     7.84889   -19.62221
    36   2    -7.84889     7.84889   -19.62221
    37   2    -3.92444     7.84889   -19.62221
    38   1     0.00000     7.84889   -19.62221
    39   3     3.92444     7.84889   -19.62221
    40   2     7.84889     7.84889   -19.62221
    41   2    -3.92444    11.77333   -19.62221
    42   2     0.00000    11.77333   -19.62221
    43   3     7.84889    11.77333   -19.62221
    44   2    -3.92444   -15.69777   -15.69777
    45   3     0.00000   -15.69777   -15.69777
    46   2     3.92444   -15.69777   -15.69777
    47   1     7.84889   -15.69777   -15.69777
    48   3   -11.77333   -11.77333   -15.69777
    49   3    -7.84889   -11.77333   -15.69777
    50   3    -3.92444   -11.77333   -15.69777
    51   2     0.00000   -11.77333   -15.69777
    52   1     3.92444   -11.77333   -15.69777
    53   1     7.84889   -11.77333   -15.69777
    54   1    11.77333   -11.77333   -15.69777
    55   3   -15.69777    -7.84889   -15.69777
    56   1   -11.77333    -7.84889   -15.69777
    57   2    -7.84889    -7.84889   -15.69777
    58   1    -3.92444    -7.84889   -15.69777
    59   2     0.00000    -7.84889   -15.69777
    60   1     3.92444    -7.84889   -15.69777
    61   3     7.84889    -7.84889   -15.69777
    62   3    11.77333    -7.84889   -15.69777
    63   2    15.69777    -7.84889   -15.69777
    64   3   -15.69777    -3.92444   -15.69777
    65   1   -11.77333    -3.92444   -15.69777
    66   2    -7.84889    -3.92444   -15.69777
    67   2    -3.92444    -3.92444   -15.69777
    68   2     0.00000    -3.92444   -15.69777
    69   3     3.92444    -3.92444   -15.69777
    70   1     7.84889    -3.92444   -15.69777
    71   2    11.77333    -3.92444   -15.69777
    72   2    15.69777    -3.92444   -15.69777
    73   1   -15.69777     0.00000   -15.69777
    74   2   -11.77333     0.00000   -15.69777
    75   1    -7.84889     0.00000   -15.69777
    76   1    -3.92444     0.00000   -15.69777
    77   2     0.00000     0.00000   -15.69777
    78   1     3.92444     0.00000   -15.69777
    79   1     7.84889     0.00000   -15.69777
    80   1    11.77333     0.00000   -15.69777
    81   1    15.69777     0.00000   -15.69777
    82   3   -15.69777     3.92444   -15.69777
    83   3   -11.77333     3.92444   -15.69777
    84   2    -7.84889     3.92444   -15.69777
    85   1    -3.92444     3.92444   -15.69777
    86   2     0.00000     3.92444   -15.69777
    87   1     3.92444     3.92444   -15.69777
    88   2     7.84889     3.92444   -15.69777
    89   2    11.77333     3.92444   -15.69777
    90   3    15.69777     3.92444   -15.69777
    91   1   -15.69777     7.84889   -15.69777
    92   3   -11.77333     7.84889   -15.69777
    93   2    -7.84889     7.84889   -15.69777
    94   1    -3.92444     7.84889   -15.69777
    95   1     0.00000     7.84889   -15.69777
    96   2     3.92444     7.84889   -15.69777
    97   1     7.84889     7.84889   -15.69777
    98   3    11.77333     7.84889   -15.69777
    99   3    15.69777     7.84889   -15.69777
   100   1   -11.77333    11.77333   -15.69777
   101   2    -7.84889    11.77333   -15.69777
   102   2    -3.92444    11.77333   -15.69777
   103   2     0.00000    11.77333   -15.69777
   104   1     3.92444    11.77333   -15.69777
   105   2     7.84889    11.77333   -15.69777
   106   3    11.77333    11.77333   -15.69777
   107   1    -3.92444    15.69777   -15.69777
   108   2     0.00000    15.69777   -15.69777
   109   1     3.92444    15.69777   -15.69777
   110   3    -7.84889   -19.62221   -11.77333
   111   1    -3.92444   -19.62221   -11.77333
   112   3     0.00000   -19.62221   -11.77333
   113   2     3.92444   -19.62221   -11.77333
   114   3     7.84889   -19.62221   -11.77333
   115   3   -11.77333   -15.69777   -11.77333
   116   3    -7.84889   -15.69777   -11.77333
   117   2    -3.92444   -15.69777   -11.77333
   118   1     0.00000   -15.69777   -11.77333
   119   2     3.92444   -15.69777   -11.77333
   120   3     7.84889   -15.69777   -11.77333
   121   3   -15.69777   -11.77333   -11.77333
   122   3   -11.77333   -11.77333   -11.77333
   123   3    -7.84889   -11.77333   -11.77333
   124   1    -3.92444   -11.77333   -11.77333
   125   2     0.00000   -11.77333   -11.77333
   126   2     3.92444   -11.77333   -11.77333
   127   1     7.84889   -11.77333   -11.77333
   128   1    11.77333   -11.77333   -11.77333
   129   2   -15.69777    -7.84889   -11.77333
   130   1   -11.77333    -7.84889   -11.77333
   131   2    -7.84889    -7.84889   -11.77333
   132   2    -3.92444    -7.84889   -11.77333
   133   2     0.00000    -7.84889   -11.77333
   134   2     3.92444    -7.84889   -11.77333
   135   2     7.84889    -7.84889   -11.77333
   136   1    11.77333    -7.84889   -11.77333
   137   3    15.69777    -7.84889   -11.77333
   138   1    19.62221    -7.84889   -11.77333
   139   2   -15.69777    -3.92444   -11.77333
   140   2   -11.77333    -3.92444   -11.77333
   141   1    -7.84889    -3.92444   -11.77333
   142   2    -3.92444    -3.92444   -11.77333
   143   1     0.00000    -3.92444   -11.77333
   144   2     3.92444    -3.92444   -11.77333
   145   2     7.84889    -3.92444   -11.77333
   146   3    11.77333    -3.92444   -11.77333
   147   3    15.69777    -3.92444   -11.77333
   148   3    19.62221    -3.92444   -11.77333
   149   2   -19.62221     0.00000   -11.77333
   150   2   -15.69777     0.00000   -11.77333
   151   1   -11.77333     0.00000   -11.77333
   152   2    -7.84889     0.00000   -11.77333
   153   2    -3.92444     0.00000   -11.77333
   154   2     0.00000     0.00000   -11.77333
   155   1     3.92444     0.00000   -11.77333
   156   2     7.84889     0.00000   -11.77333
   157   1    11.77333     0.00000   -11.77333
   158   1    15.69777     0.00000   -11.77333
   159   3    19.62221     0.00000   -11.77333
   160   2   -15.69777     3.92444   -11.77333
   161   1   -11.77333     3.92444   -11.77333
   162   2    -7.84889     3.92444   -11.77333
   163   2    -3.92444     3.92444   -11.77333
   164   2     0.00000     3.92444   -11.77333
   165   1     3.92444     3.92444   -11.77333
   166   2     7.84889     3.92444   -11.77333
   167   1    11.77333     3.92444   -11.77333
   168   2    15.69777     3.92444   -11.77333
   169   3    19.62221     3.92444   -11.77333
   170   2   -15.69777     7.84889   -11.77333
   171   1   -11.77333     7.84889   -11.77333
   172   2    -7.84889     7.84889   -11.77333
   173   3    -3.92444     7.84889   -11.77333
   174   2     0.00000     7.84889   -11.77333
   175   2     3.92444     7.84889   -11.77333
   176   1     7.84889     7.84889   -11.77333
   177   2    11.77333     7.84889   -11.77333
   178   2    15.69777     7.84889   -11.77333
   179   3   -15.69777    11.77333   -11.77333
   180   2   -11.77333    11.77333   -11.77333
   181   2    -7.84889    11.77333   -11.77333
   182   2    -3.92444    11.77333   -11.77333
   183   1     0.00000    11.77333   -11.77333
   184   2     3.92444    11.77333   -11.77333
   185   2     7.84889    11.77333   -11.77333
   186   2    11.77333    11.77333   -11.77333
   187   2    15.69777    11.77333   -11.77333
   188   1   -11.77333    15.69777   -11.77333
   189   3    -7.84889    15.69777   -11.77333
   190   2    -3.92444    15.69777   -11.77333
   191   3     0.00000    15.69777   -11.77333
   192   1     3.92444    15.69777   -11.77333
   193   3     7.84889    15.69777   -11.77333
   194   3    11.77333    15.69777   -11.77333
   195   3    -7.84889    19.62221   -11.77333
   196   1     0.00000    19.62221   -11.77333
   197   1     3.92444    19.62221   -11.77333
   198   1    -7.84889   -19.62221    -7.84889
   199   1    -3.92444   -19.62221    -7.84889
   200   2     0.00000   -19.62221    -7.84889
   201   3     3.92444   -19.62221    -7.84889
   202   1     7.84889   -19.62221    -7.84889
   203   3   -15.69777   -15.69777    -7.84889
   204   1   -11.77333   -15.69777    -7.84889
   205   3    -7.84889   -15.69777    -7.84889
   206   3    -3.92444   -15.69777    -7.84889
   207   2     0.00000   -15.69777    -7.84889
   208   2     3.92444   -15.69777    -7.84889
   209   1     7.84889   -15.69777    -7.84889
   210   1    11.77333   -15.69777    -7.84889
   211   3   -19.62221   -11.77333    -7.84889
   212   1   -15.69777   -11.77333    -7.84889
   213   3   -11.77333   -11.77333    -7.84889
   214   1    -7.84889   -11.77333    -7.84889
   215   2    -3.92444   -11.77333    -7.84889
   216   3     0.00000   -11.77333    -7.84889
   217   2     3.92444   -11.77333    -7.84889
   218   2     7.84889   -11.77333    -7.84889
   219   1    11.77333   -11.77333    -7.84889
   220   1    15.69777   -11.77333    -7.84889
   221   2   -15.69777    -7.84889    -7.84889
   222   2   -11.77333    -7.84889    -7.84889
   223   1    -7.84889    -7.84889    -7.84889
   224   1    -3.92444    -7.84889    -7.84889
   225   1     0.00000    -7.84889    -7.84889
   226   2     3.92444    -7.84889    -7.84889
   227   1     7.84889    -7.84889    -7.84889
   228   2    11.77333    -7.84889    -7.84889
   229   1    15.69777    -7.84889    -7.84889
   230   2    19.62221    -7.84889    -7.84889
   231   2   -19.62221    -3.92444    -7.84889
   232   2   -15.69777    -3.92444    -7.84889
   233   2   -11.77333    -3.92444    -7.84889
   234   2    -7.84889    -3.92444    -7.84889
   235   2    -3.92444    -3.92444    -7.84889
   236   1     0.00000    -3.92444    -7.84889
   237   1     3.92444    -3.92444    -7.84889
   238   2     7.84889    -3.92444    -7.84889
   239   1    11.77333    -3.92444    -7.84889
   240   2    15.69777    -3.92444    -7.84889
   241   2    19.62221    -3.92444    -7.84889
   242   2   -19.62221     0.00000    -7.84889
   243   2   -15.69777     0.00000    -7.84889
   244   3   -11.77333     0.00000    -7.84889
   245   1    -7.84889     0.00000    -7.84889
   246   2    -3.92444     0.00000    -7.84889
   247   1     0.00000     0.00000    -7.84889
   248   1     3.92444     0.00000    -7.84889
   249   2     7.84889     0.00000    -7.84889
   250   3    11.77333     0.00000    -7.84889
   251   1    15.69777     0.00000    -7.84889
   252   3    19.62221     0.00000    -7.84889
   253   3    23.54666     0.00000    -7.84889
   254   3   -19.62221     3.92444    -7.84889
   255   1   -15.69777     3.92444    -7.84889
   256   3   -11.77333     3.92444    -7.84889
   257   1    -7.84889     3.92444    -7.84889
   258   2    -3.92444     3.92444    -7.84889
   259   2     0.00000     3.92444    -7.84889
   260   1     3.92444     3.92444    -7.84889
   261   2     7.84889     3.92444    -7.84889
   262   1    11.77333     3.92444    -7.84889
   263   2    15.69777     3.92444    -7.84889
   264   1    19.62221     3.92444    -7.84889
   265   3   -19.62221     7.84889    -7.84889
   266   2   -15.69777     7.84889    -7.84889
   267   2   -11.77333     7.84889    -7.84889
   268   1    -7.84889     7.84889    -7.84889
   269   1    -3.92444     7.84889    -7.84889
   270   1     0.00000     7.84889    -7.84889
   271   2     3.92444     7.84889    -7.84889
   272   2     7.84889     7.84889    -7.84889
   273   1    11.77333     7.84889    -7.84889
   274   2    15.69777     7.84889    -7.84889
   275   2    19.62221     7.84889    -7.84889
   276   2   -15.69777    11.77333    -7.84889
   277   1   -11.77333    11.77333    -7.84889
   278   1    -7.84889    11.77333    -7.84889
   279   2    -3.92444    11.77333    -7.84889
   280   2     0.00000    11.77333    -7.84889
   281   2     3.92444    11.77333    -7.84889
   282   2     7.84889    11.77333    -7.84889
   283   2    11.77333    11.77333    -7.84889
   284   3    15.69777    11.77333    -7.84889
   285   3    19.62221    11.77333    -7.84889
   286   1   -11.77333    15.69777    -7.84889
   287   2    -7.84889    15.69777    -7.84889
   288   2    -3.92444    15.69777    -7.84889
   289   3     0.00000    15.69777    -7.84889
   290   3     3.92444    15.69777    -7.84889
   291   1     7.84889    15.69777    -7.84889
   292   3    11.77333    15.69777    -7.84889
   293   1    -7.84889    19.62221    -7.84889
   294   1    -3.92444    19.62221    -7.84889
   295   3     0.00000    19.62221    -7.84889
   296   2     3.92444    19.62221    -7.84889
   297   1     7.84889    19.62221    -7.84889
   298   3    11.77333    19.62221    -7.84889
   299   3     3.92444   -23.54666    -3.92444
   300   1    -7.84889   -19.62221    -3.92444
   301   1    -3.92444   -19.62221    -3.92444
   302   2     0.00000   -19.62221    -3.92444
   303   2     3.92444   -19.62221    -3.92444
   304   2     7.84889   -19.62221    -3.92444
   305   3    11.77333   -19.62221    -3.92444
   306   2   -15.69777   -15.69777    -3.92444
   307   1   -11.77333   -15.69777    -3.92444
   308   3    -7.84889   -15.69777    -3.92444
   309   2    -3.92444   -15.69777    -3.92444
   310   1     0.00000   -15.69777    -3.92444
   311   1     3.92444   -15.69777    -3.92444
   312   3     7.84889   -15.69777    -3.92444
   313   1    11.77333   -15.69777    -3.92444
   314   3    15.69777   -15.69777    -3.92444
   315   3   -19.62221   -11.77333    -3.92444
   316   3   -15.69777   -11.77333    -3.92444
   317   3   -11.77333   -11.77333    -3.92444
   318   1    -7.84889   -11.77333    -3.92444
   319   2    -3.92444   -11.77333    -3.92444
   320   1     0.00000   -11.77333    -3.92444
   321   2     3.92444   -11.77333    -3.92444
   322   1     7.84889   -11.77333    -3.92444
   323   2    11.77333   -11.77333    -3.92444
   324   3    15.69777   -11.77333    -3.92444
   325   1   -19.62221    -7.84889    -3.92444
   326   2   -15.69777    -7.84889    -3.92444
   327   2   -11.77333    -7.84889    -3.92444
   328   2    -7.84889    -7.84889    -3.92444
   329   2    -3.92444    -7.84889    -3.92444
   330   2     0.00000    -7.84889    -3.92444
   331   2     3.92444    -7.84889    -3.92444
   332   2     7.84889    -7.84889    -3.92444
   333   2    11.77333    -7.84889    -3.92444
   334   1    15.69777    -7.84889    -3.92444
   335   2    19.62221    -7.84889    -3.92444
   336   3   -23.54666    -3.92444    -3.92444
   337   3   -19.62221    -3.92444    -3.92444
   338   1   -15.69777    -3.92444    -3.92444
   339   1   -11.77333    -3.92444    -3.92444
   340   2    -7.84889    -3.92444    -3.92444
   341   2    -3.92444    -3.92444    -3.92444
   342   1     0.00000    -3.92444    -3.92444
   343   2     3.92444    -3.92444    -3.92444
   344   2     7.84889    -3.92444    -3.92444
   345   2    11.77333    -3.92444    -3.92444
   346   1    15.69777    -3.92444    -3.92444
   347   3    19.62221    -3.92444    -3.92444
   348   1   -23.54666     0.00000    -3.92444
   349   1   -19.62221     0.00000    -3.92444
   350   1   -15.69777     0.00000    -3.92444
   351   1   -11.77333     0.00000    -3.92444
   352   1    -7.84889     0.00000    -3.92444
   353   2    -3.92444     0.00000    -3.92444
   354   3     0.00000     0.00000    -3.92444
   355   2     3.92444     0.00000    -3.92444
   356   2     7.84889     0.00000    -3.92444
   357   1    11.77333     0.00000    -3.92444
   358   2    15.69777     0.00000    -3.92444
   359   2    19.62221     0.00000    -3.92444
   360   2    23.54666     0.00000    -3.92444
   361   3   -23.54666     3.92444    -3.92444
   362   3   -19.62221     3.92444    -3.92444
   363   1   -15.69777     3.92444    -3.92444
   364   1   -11.77333     3.92444    -3.92444
   365   2    -7.84889     3.92444    -3.92444
   366   1    -3.92444     3.92444    -3.92444
   367   2     0.00000     3.92444    -3.92444
   368   2     3.92444     3.92444    -3.92444
   369   1     7.84889     3.92444    -3.92444
   370   1    11.77333     3.92444    -3.92444
   371   2    15.69777     3.92444    -3.92444
   372   3    19.62221     3.92444    -3.92444
   373   3    23.54666     3.92444    -3.92444
   374   2   -19.62221     7.84889    -3.92444
   375   2   -15.69777     7.84889    -3.92444
   376   2   -11.77333     7.84889    -3.92444
   377   1    -7.84889     7.84889    -3.92444
   378   1    -3.92444     7.84889    -3.92444
   379   2     0.00000     7.84889    -3.92444
   380   2     3.92444     7.84889    -3.92444
   381   2     7.84889     7.84889    -3.92444
   382   2    11.77333     7.84889    -3.92444
   383   2    15.69777     7.84889    -3.92444
   384   1    19.62221     7.84889    -3.92444
   385   1   -15.69777    11.77333    -3.92444
   386   1   -11.77333    11.77333    -3.92444
   387   2    -7.84889    11.77333    -3.92444
   388   1    -3.92444    11.77333    -3.92444
   389   2     0.00000    11.77333    -3.92444
   390   2     3.92444    11.77333    -3.92444
   391   1     7.84889    11.77333    -3.92444
   392   2    11.77333    11.77333    -3.92444
   393   2    15.69777    11.77333    -3.92444
   394   3   -15.69777    15.69777    -3.92444
   395   3   -11.77333    15.69777    -3.92444
   396   2    -7.84889    15.69777    -3.92444
   397   1    -3.92444    15.69777    -3.92444
   398   1     0.00000    15.69777    -3.92444
   399   1     3.92444    15.69777    -3.92444
   400   2     7.84889    15.69777    -3.92444
   401   2    11.77333    15.69777    -3.92444
   402   2    15.69777    15.69777    -3.92444
   403   3   -11.77333    19.62221    -3.92444
   404   3    -7.84889    19.62221    -3.92444
   405   3    -3.92444    19.62221    -3.92444
   406   3     0.00000    19.62221    -3.92444
   407   2     3.92444    19.62221    -3.92444
   408   1     7.84889    19.62221    -3.92444
   409   2    11.77333    19.62221    -3.92444
   410   3    -3.92444    23.54666    -3.92444
   411   3     0.00000    23.54666    -3.92444
   412   3     3.92444    23.54666    -3.92444
   413   3    -3.92444   -23.54666     0.00000
   414   2     0.00000   -23.54666     0.00000
   415   2     3.92444   -23.54666     0.00000
   416   3   -11.77333   -19.62221     0.00000
   417   3    -7.84889   -19.62221     0.00000
   418   1    -3.92444   -19.62221     0.00000
   419   2     0.00000   -19.62221     0.00000
   420   1     3.92444   -19.62221     0.00000
   421   3     7.84889   -19.62221     0.00000
   422   2    11.77333   -19.62221     0.00000
   423   3   -15.69777   -15.69777     0.00000
   424   2   -11.77333   -15.69777     0.00000
   425   2    -7.84889   -15.69777     0.00000
   426   2    -3.92444   -15.69777     0.00000
   427   2     0.00000   -15.69777     0.00000
   428   2     3.92444   -15.69777     0.00000
   429   1     7.84889   -15.69777     0.00000
   430   1    11.77333   -15.69777     0.00000
   431   2    15.69777   -15.69777     0.00000
   432   3   -19.62221   -11.77333     0.00000
   433   3   -15.69777   -11.77333     0.00000
   434   2   -11.77333   -11.77333     0.00000
   435   2    -7.84889   -11.77333     0.00000
   436   2    -3.92444   -11.77333     0.00000
   437   1     0.00000   -11.77333     0.00000
   438   2     3.92444   -11.77333     0.00000
   439   3     7.84889   -11.77333     0.00000
   440   2    11.77333   -11.77333     0.00000
   441   1    15.69777   -11.77333     0.00000
   442   3    19.62221   -11.77333     0.00000
   443   3   -23.54666    -7.84889     0.00000
   444   2   -19.62221    -7.84889     0.00000
   445   2   -15.69777    -7.84889     0.00000
   446   2   -11.77333    -7.84889     0.00000
   447   2    -7.84889    -7.84889     0.00000
   448   2    -3.92444    -7.84889     0.00000
   449   2     0.00000    -7.84889     0.00000
   450   2     3.92444    -7.84889     0.00000
   451   2     7.84889    -7.84889     0.00000
   452   2    11.77333    -7.84889     0.00000
   453   1    15.69777    -7.84889     0.00000
   454   1    19.62221    -7.84889     0.00000
   455   3   -23.54666    -3.92444     0.00000
   456   3   -19.62221    -3.92444     0.00000
   457   1   -15.69777    -3.92444     0.00000
   458   2   -11.77333    -3.92444     0.00000
   459   1    -7.84889    -3.92444     0.00000
   460   1    -3.92444    -3.92444     0.00000
   461   1     0.00000    -3.92444     0.00000
   462   2     3.92444    -3.92444     0.00000
   463   1     7.84889    -3.92444     0.00000
   464   1    11.77333    -3.92444     0.00000
   465   2    15.69777    -3.92444     0.00000
   466   2    19.62221    -3.92444     0.00000
   467   1   -23.54666     0.00000     0.00000
   468   1   -19.62221     0.00000     0.00000
   469   2   -15.69777     0.00000     0.00000
   470   1   -11.77333     0.00000     0.00000
   471   3    -7.84889     0.00000     0.00000
   472   2    -3.92444     0.00000     0.00000
   473   2     0.00000     0.00000     0.00000
   474   2     3.92444     0.00000     0.00000
   475   1     7.84889     0.00000     0.00000
   476   3    11.77333     0.00000     0.00000
   477   2    15.69777     0.00000     0.00000
   478   3    19.62221     0.00000     0.00000
   479   3    23.54666     0.00000     0.00000
   480   3   -19.62221     3.92444     0.00000
   481   3   -15.69777     3.92444     0.00000
   482   1   -11.77333     3.92444     0.00000
   483   1    -7.84889     3.92444     0.00000
   484   2    -3.92444     3.92444     0.00000
   485   1     0.00000     3.92444     0.00000
   486   2     3.92444     3.92444     0.00000
   487   1     7.84889     3.92444     0.00000
   488   2    11.77333     3.92444     0.00000
   489   1    15.69777     3.92444     0.00000
   490   3    19.62221     3.92444     0.00000
   491   3    23.54666     3.92444     0.00000
   492   3   -19.62221     7.84889     0.00000
   493   3   -15.69777     7.84889     0.00000
   494   1   -11.77333     7.84889     0.00000
   495   2    -7.84889     7.84889     0.00000
   496   1    -3.92444     7.84889     0.00000
   497   1     0.00000     7.84889     0.00000
   498   2     3.92444     7.84889     0.00000
   499   2     7.84889     7.84889     0.00000
   500   3    11.77333     7.84889     0.00000
   501   2    15.69777     7.84889     0.00000
   502   2    19.62221     7.84889     0.00000
   503   3    23.54666     7.84889     0.00000
   504   3   -19.62221    11.77333     0.00000
   505   1   -15.69777    11.77333     0.00000
   506   2   -11.77333    11.77333     0.00000
   507   1    -7.84889    11.77333     0.00000
   508   2    -3.92444    11.77333     0.00000
   509   1     0.00000    11.77333     0.00000
   510   2     3.92444    11.77333     0.00000
   511   2     7.84889    11.77333     0.00000
   512   3    11.77333    11.77333     0.00000
   513   1    15.69777    11.77333     0.00000
   514   3    19.62221    11.77333     0.00000
   515   2   -15.69777    15.69777     0.00000
   516   3   -11.77333    15.69777     0.00000
   517   1    -7.84889    15.69777     0.00000
   518   2    -3.92444    15.69777     0.00000
   519   2     0.00000    15.69777     0.00000
   520   2     3.92444    15.69777     0.00000
   521   3     7.84889    15.69777     0.00000
   522   2    11.77333    15.69777     0.00000
   523   2    15.69777    15.69777     0.00000
   524   3   -11.77333    19.62221     0.00000
   525   2    -7.84889    19.62221     0.00000
   526   2    -3.92444    19.62221     0.00000
   527   1     0.00000    19.62221     0.00000
   528   3     3.92444    19.62221     0.00000
   529   2     7.84889    19.62221     0.00000
   530   3    11.77333    19.62221     0.00000
   531   3    -3.92444    23.54666     0.00000
   532   1     0.00000    23.54666     0.00000
   533   3     3.92444    23.54666     0.00000
   534   3     7.84889    23.54666     0.00000
   535   1    -3.92444   -23.54666     3.92444
   536   1     0.00000   -23.54666     3.92444
   537   3     3.92444   -23.54666     3.92444
   538   3   -11.77333   -19.62221     3.92444
   539   3    -7.84889   -19.62221     3.92444
   540   1    -3.92444   -19.62221     3.92444
   541   3     0.00000   -19.62221     3.92444
   542   1     3.92444   -19.62221     3.92444
   543   1     7.84889   -19.62221     3.92444
   544   3   -15.69777   -15.69777     3.92444
   545   1   -11.77333   -15.69777     3.92444
   546   3    -7.84889   -15.69777     3.92444
   547   1    -3.92444   -15.69777     3.92444
   548   2     0.00000   -15.69777     3.92444
   549   1     3.92444   -15.69777     3.92444
   550   2     7.84889   -15.69777     3.92444
   551   1    11.77333   -15.69777     3.92444
   552   3    15.69777   -15.69777     3.92444
   553   3   -19.62221   -11.77333     3.92444
   554   3   -15.69777   -11.77333     3.92444
   555   3   -11.77333   -11.77333     3.92444
   556   2    -7.84889   -11.77333     3.92444
   557   2    -3.92444   -11.77333     3.92444
   558   1     0.00000   -11.77333     3.92444
   559   1     3.92444   -11.77333     3.92444
   560   2     7.84889   -11.77333     3.92444
   561   2    11.77333   -11.77333     3.92444
   562   2    15.69777   -11.77333     3.92444
   563   3    19.62221   -11.77333     3.92444
   564   1   -15.69777    -7.84889     3.92444
   565   1   -11.77333    -7.84889     3.92444
   566   3    -7.84889    -7.84889     3.92444
   567   3    -3.92444    -7.84889     3.92444
   568   2     0.00000    -7.84889     3.92444
   569   2     3.92444    -7.84889     3.92444
   570   1     7.84889    -7.84889     3.92444
   571   2    11.77333    -7.84889     3.92444
   572   2    15.69777    -7.84889     3.92444
   573   2    19.62221    -7.84889     3.92444
   574   1   -19.62221    -3.92444     3.92444
   575   2   -15.69777    -3.92444     3.92444
   576   2   -11.77333    -3.92444     3.92444
   577   2    -7.84889    -3.92444     3.92444
   578   1    -3.92444    -3.92444     3.92444
   579   2     0.00000    -3.92444     3.92444
   580   1     3.92444    -3.92444     3.92444
   581   2     7.84889    -3.92444     3.92444
   582   2    11.77333    -3.92444     3.92444
   583   1    15.69777    -3.92444     3.92444
   584   2    19.62221    -3.92444     3.92444
   585   3    23.54666    -3.92444     3.92444
   586   3   -19.62221     0.00000     3.92444
   587   1   -15.69777     0.00000     3.92444
   588   2   -11.77333     0.00000     3.92444
   589   2    -7.84889     0.00000     3.92444
   590   2    -3.92444     0.00000     3.92444
   591   2     0.00000     0.00000     3.92444
   592   2     3.92444     0.00000     3.92444
   593   1     7.84889     0.00000     3.92444
   594   2    11.77333     0.00000     3.92444
   595   2    15.69777     0.00000     3.92444
   596   2    19.62221     0.00000     3.92444
   597   2    23.54666     0.00000     3.92444
   598   3   -19.62221     3.92444     3.92444
   599   2   -15.69777     3.92444     3.92444
   600   1   -11.77333     3.92444     3.92444
   601   2    -7.84889     3.92444     3.92444
   602   1    -3.92444     3.92444     3.92444
   603   2     0.00000     3.92444     3.92444
   604   2     3.92444     3.92444     3.92444
   605   2     7.84889     3.92444     3.92444
   606   2    11.77333     3.92444     3.92444
   607   1    15.69777     3.92444     3.92444
   608   2    19.62221     3.92444     3.92444
   609   3    23.54666     3.92444     3.92444
   610   2   -19.62221     7.84889     3.92444
   611   2   -15.69777     7.84889     3.92444
   612   2   -11.77333     7.84889     3.92444
   613   1    -7.84889     7.84889     3.92444
   614   1    -3.92444     7.84889     3.92444
   615   2     0.00000     7.84889     3.92444
   616   2     3.92444     7.84889     3.92444
   617   1     7.84889     7.84889     3.92444
   618   2    11.77333     7.84889     3.92444
   619   2    15.69777     7.84889     3.92444
   620   1    19.62221     7.84889     3.92444
   621   2   -19.62221    11.77333     3.92444
   622   2   -15.69777    11.77333     3.92444
   623   3   -11.77333    11.77333     3.92444
   624   2    -7.84889    11.77333     3.92444
   625   2    -3.92444    11.77333     3.92444
   626   1     0.00000    11.77333     3.92444
   627   2     3.92444    11.77333     3.92444
   628   2     7.84889    11.77333     3.92444
   629   2    11.77333    11.77333     3.92444
   630   3    15.69777    11.77333     3.92444
   631   2    19.62221    11.77333     3.92444
   632   1   -15.69777    15.69777     3.92444
   633   3   -11.77333    15.69777     3.92444
   634   1    -7.84889    15.69777     3.92444