3864
 Atoms. Timestep: 4193
1 -4.32593 -3.06201 -21.4948
3 3.63808 0.26613 -22.9172
3 7.59867 0.195653 -22.2547
3 0.0463234 3.9069 -22.6576
3 4.16239 4.06559 -22.4981
3 0.264329 7.82544 -22.2992
3 -3.48914 -11.6238 -19.1176
2 -0.0400201 -11.431 -19.1977
3 3.75531 -11.5332 -18.9913
2 -3.71329 -7.74185 -19.3543
3 0.065155 -7.96996 -19.2769
3 4.00874 -7.67165 -19.2703
3 11.4841 -7.73711 -19.0043
3 -11.4405 -3.80125 -19.1673
2 -7.89242 -3.90655 -19.264
3 -3.65248 -3.99693 -19.2284
2 0.0151543 -3.93712 -19.5062
2 3.92236 -3.55364 -19.3129
1 7.86131 -3.999 -19.1288
3 11.3245 -4.05713 -18.9603
3 -11.6256 0.283658 -19.2266
3 -7.66616 0.0607475 -19.1478
1 -3.83262 0.078672 -19.3471
1 -0.127551 0.126676 -19.2871
3 3.77077 -0.114023 -19.2128
3 7.78895 0.0269667 -19.0556
3 11.3451 -0.0524279 -18.9961
2 -11.4641 4.00185 -19.2693
3 -7.69025 3.95359 -19.294
2 -3.59144 3.95996 -19.1361
2 -0.0516249 4.12564 -19.1239
2 3.79513 3.94673 -19.1799
2 7.69262 3.89138 -19.0796
1 11.4482 3.96986 -18.8846
2 -11.5276 7.5247 -19.1984
2 -7.49356 7.97489 -19.143
2 -3.77715 7.85577 -19.2141
1 0.0947606 7.8582 -19.1539
3 3.91375 7.78778 -18.9468
2 7.67938 7.83897 -19.0666
2 -3.91183 11.6154 -18.8402
2 -0.255766 11.8638 -18.9889
3 7.61615 11.8645 -18.5156
2 -3.98118 -15.474 -15.4013
3 0.0338909 -15.6962 -15.4824
2 3.85978 -15.5603 -15.3423
1 7.49303 -15.3365 -15.4407
3 -11.4441 -11.5193 -15.2818
3 -7.80445 -11.6124 -15.5313
3 -3.74371 -11.7094 -15.4542
2 -0.0332331 -11.5832 -15.3939
1 3.7272 -11.6032 -15.5997
1 7.75578 -11.6893 -15.5622
1 11.7488 -11.6633 -15.5127
3 -15.0559 -7.90093 -15.215
1 -11.4593 -7.69561 -15.5166
2 -7.87128 -7.77396 -15.7185
1 -3.91588 -8.00404 -15.5115
2 -0.125184 -7.89234 -15.4495
1 3.72998 -7.69045 -15.5646
3 7.63346 -7.76058 -15.4357
3 11.449 -7.73517 -15.3599
2 15.1791 -7.86541 -15.5357
3 -15.2626 -3.96186 -15.6367
1 -11.5414 -3.86282 -15.5836
2 -7.69887 -3.7595 -15.6599
2 -3.65379 -3.89164 -15.657
2 -0.126153 -3.91602 -15.4766
3 3.87826 -3.92645 -15.4241
1 7.66184 -3.87257 -15.4092
2 11.4187 -4.12555 -15.3598
2 15.3827 -4.21337 -15.258
1 -15.2484 -0.0696469 -15.5943
2 -11.4674 -0.034303 -15.4995
1 -7.84263 0.157682 -15.7069
1 -3.8032 -0.0726099 -15.5614
2 -0.0189996 0.0355274 -15.4241
1 3.73958 0.0241784 -15.566
1 7.67907 -0.102067 -15.4655
1 11.6468 -0.142179 -15.2485
1 15.5976 -0.219347 -15.208
3 -15.407 3.57289 -15.3547
3 -11.6471 3.81345 -15.4844
2 -7.82814 3.90528 -15.293
1 -3.77582 3.87467 -15.4909
2 0.0474094 3.87522 -15.2869
1 3.90678 3.99083 -15.4375
2 7.718 3.83356 -15.1986
2 11.5006 3.66795 -15.611
3 15.2108 4.03847 -15.2561
1 -15.0764 8.04116 -15.5119
3 -11.5809 7.77955 -15.3682
2 -7.68991 7.58548 -15.4179
1 -4.00402 7.83362 -15.2509
1 -0.0130819 7.931 -15.2641
2 4.1399 7.82141 -15.1429
1 7.80883 7.79541 -15.2138
3 11.395 7.67881 -15.2453
3 15.0882 7.76516 -15.1274
1 -11.537 11.4253 -15.6219
2 -7.86221 11.7402 -15.4085
2 -3.79878 11.791 -15.1326
2 -0.227964 11.6031 -15.2539
1 3.91025 11.6921 -15.4514
2 7.74809 11.7831 -15.2756
3 11.615 11.3983 -15.0399
1 -4.23134 15.6194 -15.2493
2 -0.0959083 15.4619 -15.2904
1 3.87392 15.6385 -15.2573
3 -7.66628 -19.0194 -11.4829
1 -3.99972 -19.1214 -11.5055
3 -0.330099 -19.3485 -11.4261
2 3.89983 -19.2411 -11.3625
3 7.38087 -19.2585 -11.6467
3 -11.3427 -15.254 -11.5162
3 -7.7657 -15.3617 -11.5156
2 -3.88976 -15.4816 -11.3941
1 -0.0164985 -15.6335 -11.5885
2 3.73854 -15.6368 -11.3708
3 7.67746 -15.4863 -11.5866
3 -15.0581 -11.7033 -11.5641
3 -11.5263 -11.6905 -11.5412
3 -7.6551 -11.5705 -11.6193
1 -3.96327 -11.719 -11.7132
2 -0.0709114 -11.8627 -11.6786
2 3.83928 -11.7543 -11.6842
1 7.816 -11.6711 -11.5663
1 11.5193 -11.7575 -11.5282
2 -15.5102 -8.02118 -11.2798
1 -11.5259 -7.78028 -11.4577
2 -7.70225 -7.61871 -11.7252
2 -3.93008 -7.80507 -11.8695
2 -0.0565784 -7.79541 -11.6377
2 3.85752 -7.71882 -11.6668
2 7.73485 -7.96289 -11.5949
1 11.4935 -7.91105 -11.6066
3 15.1613 -7.71604 -11.6265
1 18.5615 -8.00309 -11.4185
2 -15.4641 -4.06431 -11.5995
2 -11.5676 -3.83984 -11.599
1 -7.76729 -3.78664 -11.7019
2 -3.96236 -3.99492 -11.6761
1 -0.103152 -4.02433 -11.7374
2 3.67235 -3.92621 -11.6768
2 7.62801 -4.05828 -11.5831
3 11.5585 -3.943 -11.6927
3 15.2741 -3.98212 -11.559
3 18.9598 -4.33491 -11.3845
2 -18.9504 -0.107528 -11.6857
2 -15.5131 -0.210303 -11.6516
1 -11.5566 -0.106781 -11.5449
2 -7.73785 0.0845878 -11.6726
2 -3.88073 0.087812 -11.5843
2 -0.101238 0.13744 -11.5652
1 3.76484 -0.0561622 -11.5204
2 7.6707 -0.166682 -11.5994
1 11.5952 -0.201296 -11.5233
1 16.5833 -0.257721 -12.769
3 19.0898 -0.111517 -11.4801
2 -15.4967 3.84189 -11.5621
1 -11.5572 3.83236 -11.6412
2 -7.46975 3.84792 -11.6594
2 -3.74469 3.9418 -11.5888
2 -0.15366 3.9819 -11.4978
1 3.81969 3.89009 -11.519
2 7.65483 3.82775 -11.503
1 11.4878 3.80863 -11.4175
2 15.3665 3.74856 -11.6402
3 18.8794 3.72491 -11.2338
2 -15.0352 7.96075 -11.7154
1 -11.5382 7.98454 -11.5409
2 -7.63299 7.99117 -11.4611
3 -4.09951 7.77775 -11.5977
2 -0.0232611 7.60261 -11.5049
2 3.88842 7.96065 -11.4534
1 7.80368 7.9089 -11.3823
2 11.4635 7.62537 -11.3086
2 15.4227 7.90434 -11.4551
3 -15.3432 11.759 -11.2304
2 -11.4979 11.5868 -11.3899
2 -7.60345 11.8171 -11.8002
2 -3.88908 11.854 -11.5464
1 -0.0669038 11.714 -11.3825
2 3.99575 11.9265 -11.4462
2 7.63221 11.8792 -11.3324
2 11.522 11.603 -11.4252
2 15.3305 11.5547 -11.4336
1 -11.4795 15.3578 -11.1992
3 -7.80356 15.3399 -11.5029
2 -3.78346 15.4947 -11.4321
3 -0.0321722 15.4884 -11.4239
1 3.74318 15.5795 -11.4709
3 7.52032 15.4116 -11.3139
3 11.5921 15.4018 -11.343
3 -7.78591 19.1117 -11.2659
1 0.0217624 19.2854 -11.5257
1 4.05899 19.082 -11.3383
1 -7.7582 -19.3143 -7.73308
1 -4.04069 -19.4301 -7.80905
2 -0.163779 -19.2872 -7.86495
3 3.49545 -19.3514 -7.71874
1 7.63982 -19.1513 -7.89179
3 -15.1209 -15.0581 -8.00283
1 -11.4765 -15.4593 -7.99657
3 -7.71172 -15.5595 -7.81944
3 -3.96884 -15.5904 -7.80735
2 -0.146575 -15.6351 -7.91937
2 3.73203 -15.4743 -7.74757
1 7.83981 -15.6683 -7.80628
1 12.4062 -16.3247 -7.64809
3 -18.6722 -11.6051 -7.89158
1 -15.2437 -11.847 -7.91264
3 -11.5028 -11.6608 -7.75669
1 -7.67752 -11.7282 -7.75906
2 -3.85966 -11.7277 -7.78468
3 0.0255225 -11.6864 -7.86769
2 3.80563 -11.7496 -7.87155
2 7.74938 -11.6808 -7.71793
1 11.7264 -11.9188 -7.73675
1 15.5793 -12.1733 -7.83016
2 -15.3543 -7.88531 -7.77782
2 -11.4189 -7.86425 -7.8624
1 -7.46913 -7.67557 -7.78098
1 -3.9505 -7.7571 -7.78605
1 -0.121136 -7.75309 -7.94423
2 3.84816 -7.80431 -7.90056
1 7.42739 -7.89877 -7.75838
2 11.5104 -8.02324 -7.74506
1 15.1354 -7.94679 -7.62808
2 18.9939 -8.11325 -7.54749
2 -18.8978 -3.86658 -7.77838
2 -15.4191 -3.8994 -7.8265
2 -11.5561 -4.03117 -7.579
2 -7.8948 -3.71854 -7.71458
2 -4.01624 -3.83687 -7.81272
1 -0.0973264 -3.86711 -7.93053
1 3.83516 -3.95905 -7.79583
2 7.51459 -4.04668 -7.72015
1 11.4682 -3.99826 -7.8054
2 15.3486 -4.06303 -7.58841
2 19.2032 -4.09676 -7.89881
2 -18.995 -0.182827 -7.66992
2 -15.3599 -0.0630365 -7.56817
3 -11.6342 -0.0794095 -7.83949
1 -7.6888 0.0607648 -7.8842
2 -3.82498 -0.0452142 -7.79798
1 -0.0427516 -0.0632252 -7.74447
1 3.81324 -0.0379556 -7.84829
2 7.51644 -0.0265853 -7.7193
3 11.4407 0.0249886 -7.76099
1 15.3066 -0.29089 -7.70682
3 19.0041 -0.169421 -7.77226
3 22.6365 -0.0262744 -7.90768
3 -18.9365 3.71343 -7.66092
1 -15.6472 4.12247 -7.77072
3 -11.586 3.94592 -7.89281
1 -7.66383 3.85159 -7.89137
2 -3.77302 3.92565 -7.66026
2 0.0320762 3.85605 -7.61395
1 3.77595 3.91807 -7.71503
2 7.6357 3.95977 -7.72635
1 11.4636 3.64341 -7.71084
2 15.3426 3.55999 -7.5311
1 18.9925 3.60039 -7.58505
3 -19.1892 8.05042 -7.66588
2 -15.515 7.69372 -7.99114
2 -11.6827 7.82875 -7.65772
1 -7.68002 7.78209 -7.92408
1 -3.8518 7.79792 -7.61639
1 -0.024774 7.81734 -7.77535
2 3.81591 7.77446 -7.76804
2 7.78634 7.76432 -7.68069
1 11.6173 7.5775 -7.55421
2 15.4348 7.6122 -7.65131
2 18.9116 7.55094 -7.71748
2 -15.1823 11.6237 -7.88933
1 -11.7299 11.5756 -7.60816
1 -7.66174 11.5682 -7.72824
2 -3.79768 11.713 -7.52795
2 0.0114056 11.6039 -7.56152
2 3.87469 11.7756 -7.54438
2 7.79767 11.6868 -7.44937
2 11.5385 11.4371 -7.44067
3 15.2313 11.5167 -7.46306
3 18.7705 11.4712 -7.86973
1 -11.4527 15.438 -7.65421
2 -7.57444 15.5401 -7.64333
2 -3.95221 15.5391 -7.7205
3 0.108173 15.6761 -7.62876
3 3.88887 15.5488 -7.63811
1 7.71749 15.5453 -7.57678
3 11.632 15.3493 -7.5452
1 -7.83585 19.3215 -7.45168
1 -3.93637 19.384 -7.76497
3 0.125442 19.4091 -7.58519
2 3.96407 19.3412 -7.58833
1 7.93099 19.2107 -7.55369
3 11.647 18.9566 -7.36577
3 3.48043 -22.4937 -4.13988
1 -7.65489 -19.1137 -3.94915
1 -4.05893 -19.1261 -3.94027
2 -0.167451 -19.2487 -3.97778
2 3.59435 -19.4206 -4.0446
2 7.86447 -19.2738 -3.74852
3 11.3445 -19.1742 -3.76693
2 -14.9863 -15.594 -3.89718
1 -11.5544 -15.4294 -3.93156
3 -7.65746 -15.3125 -3.95989
2 -3.66723 -15.609 -3.94232
1 -0.0734893 -15.5981 -3.8461
1 3.72834 -15.5176 -3.95333
3 7.79531 -15.6672 -3.92935
1 11.4901 -15.7395 -3.77606
3 15.1417 -15.4419 -3.6154
3 -18.8434 -11.6489 -3.81051
3 -15.1268 -11.8266 -3.91122
3 -11.5049 -11.7312 -3.93681
1 -7.64998 -11.5873 -3.82096
2 -3.75875 -11.5991 -4.00278
1 0.102999 -11.6888 -3.81731
2 3.68921 -11.8215 -3.9868
1 7.6197 -11.7678 -3.85183
2 11.5549 -11.7642 -3.76431
3 15.2142 -11.6521 -3.60441
1 -19.1119 -8.16227 -3.69523
2 -15.2679 -8.07335 -4.0253
2 -11.7303 -7.83051 -4.13098
2 -7.73623 -7.72882 -4.07796
2 -3.86283 -7.67988 -3.94025
2 0.234297 -7.68448 -4.03735
2 3.81815 -7.87676 -4.06966
2 7.64184 -7.73755 -3.88467
2 11.3735 -7.79836 -3.85288
1 15.2266 -7.76558 -3.70988
2 18.7181 -8.05769 -4.01171
3 -21.8708 -4.47164 -3.93275
3 -19.2086 -3.84269 -3.90533
1 -15.4125 -4.03327 -3.87596
1 -11.4556 -3.91129 -3.88956
2 -7.70792 -3.88167 -3.84031
2 -3.84515 -3.83936 -3.85579
1 0.042819 -3.93514 -3.92776
2 3.55129 -4.0257 -4.15317
2 7.63594 -3.93235 -3.88407
2 11.4744 -3.82415 -4.0094
1 15.3187 -3.94806 -3.85096
3 19.072 -4.00862 -3.79143
1 -21.4681 0.483979 -3.26674
1 -18.9853 -0.23536 -3.8524
1 -15.3994 -0.187529 -3.9042
1 -11.5497 -0.0761815 -3.96717
1 -7.69993 0.0398549 -3.88143
2 -3.8299 -0.0917672 -3.87963
3 0.0202168 0.0334456 -3.89051
2 3.76074 -0.028849 -3.95512
2 7.48294 -0.0506056 -3.8285
1 11.556 -0.0187038 -3.78305
2 15.3014 -0.211989 -3.93755
2 19.2433 -0.193168 -3.80231
2 22.7514 -0.190293 -3.656
3 -22.8236 4.29894 -4.19198
3 -19.1693 3.81898 -4.14173
1 -15.519 3.88766 -3.81445
1 -11.7125 3.86345 -3.99162
2 -7.75082 3.87831 -3.95545
1 -3.82816 3.75115 -3.82091
2 -0.0371669 3.86062 -3.80607
2 3.79659 3.95977 -3.93928
1 7.5411 3.81453 -3.76622
1 11.4515 3.75694 -3.67969
2 15.4896 3.80008 -3.61838
3 19.2569 3.73467 -3.82481
3 22.108 4.18691 -3.65911
2 -19.3571 7.98659 -3.83969
2 -15.562 7.72327 -3.86307
2 -11.7415 7.77836 -3.92737
1 -7.73424 7.83841 -3.98103
1 -4.03141 7.72828 -3.90061
2 0.0650148 7.89515 -3.91721
2 3.87817 7.98171 -3.7855
2 7.79177 7.71217 -3.5668
2 11.6002 7.75813 -3.91657
2 15.4939 7.55497 -3.74736
1 19.1257 7.71604 -3.96527
1 -15.3409 11.8157 -3.87685
1 -11.5159 11.5929 -3.83352
2 -7.75113 11.6444 -3.71434
1 -3.76278 11.7334 -3.69879
2 0.254952 11.8361 -3.82019
2 3.95547 11.7091 -3.70803
1 7.80484 11.7383 -3.62355
2 11.7228 11.6033 -3.77524
2 15.5705 11.2836 -3.77896
3 -15.261 15.152 -3.89675
3 -11.4237 15.4663 -3.98428
2 -7.60963 15.497 -3.63102
1 -3.68582 15.449 -3.70216
1 0.169543 15.5448 -3.66478
1 3.81868 15.5142 -3.69572
2 7.8472 15.6219 -3.74083
2 11.9127 15.3842 -3.65741
2 15.5292 15.2304 -3.81279
3 -11.5394 18.7216 -3.8677
3 -7.90631 19.0501 -3.78635
3 -3.80767 19.2546 -3.87043
3 0.310659 19.4853 -3.87028
2 3.85436 19.4311 -3.72613
1 7.92536 19.4826 -3.67405
2 11.6778 19.2246 -3.8024
3 -3.8137 22.8873 -3.98504
3 0.15995 23.1433 -4.27773
3 3.85361 22.8526 -3.7393
3 -3.78617 -22.4819 -0.0578778
2 0.0253706 -22.891 -0.106812
2 3.72889 -22.8151 0.0454782
3 -11.4366 -19.2079 0.0914597
3 -7.5436 -18.9948 0.0499323
1 -3.77058 -19.1757 0.00845945
2 0.0402123 -19.2875 0.0160556
1 3.71682 -19.4343 -0.0545496
3 7.64576 -19.4405 0.0311368
2 11.4609 -19.1241 0.132901
3 -15.0352 -15.4399 0.136057
2 -11.4766 -15.3002 0.0830081
2 -7.76696 -15.5037 -0.0420449
2 -3.66378 -15.3451 0.168244
2 0.0240961 -15.6755 -0.0159431
2 3.92322 -15.504 0.094089
1 7.59484 -15.4574 0.168758
1 11.3107 -15.5592 0.0839933
2 15.244 -15.33 0.209978
3 -18.8788 -11.8094 0.021277
3 -15.1544 -11.655 -0.0681899
2 -11.3817 -11.6906 0.0486265
2 -7.60735 -11.6652 -0.113726
2 -3.79147 -11.5774 -0.200268
1 -0.168613 -11.6034 -0.158024
2 3.78347 -11.6456 -0.0858032
3 7.6491 -11.755 0.00628286
2 11.1436 -11.6108 0.0684258
1 15.1558 -11.592 0.242557
3 19.0072 -11.7219 0.106743
3 -20.8218 -8.38195 1.92529
2 -19.1063 -7.87027 0.0784592
2 -15.2588 -7.89756 -0.0821984
2 -11.3888 -7.83757 -0.21931
2 -7.57993 -7.5989 -0.067081
2 -4.07025 -7.64075 -0.0217842
2 -0.130975 -7.6275 -0.143377
2 3.6944 -7.92694 -0.252616
2 7.23575 -7.83336 -0.0494567
2 11.2097 -7.74315 -0.185575
1 15.2546 -7.83361 0.094611
1 19.1414 -7.89771 0.0737866
3 -21.7446 -4.33738 0.298333
3 -19.3148 -4.00681 -0.0717573
1 -15.5158 -3.99457 -0.00127721
2 -11.5992 -3.79969 -0.00503929
1 -7.88088 -3.79268 -0.054082
1 -3.82621 -4.02795 0.0372104
1 0.103982 -3.67789 0.0387365
2 3.80094 -3.7783 -0.151037
1 7.54296 -3.88724 -0.00637764
1 11.2139 -3.96459 0.0468917
2 15.1814 -3.95648 0.0189529
2 19.2925 -4.01903 0.0462128
1 -21.6077 0.741897 -0.595291
1 -19.0293 0.0450537 0.135953
2 -15.343 -0.0944683 0.16873
1 -11.6589 -0.00544998 -0.0606074
3 -7.53985 0.165585 -0.193711
2 -3.8521 0.0451309 -0.0595483
2 0.0449859 0.096827 -0.0816329
2 3.76197 0.0686339 -0.0403895
1 7.49144 -0.00208438 -0.16518
3 11.3441 -0.03038 0.0251436
2 15.3307 -0.0830243 0.0314663
3 18.9876 -0.0828846 0.0834575
3 22.7231 -0.185857 0.0776156
3 -19.1662 3.63828 0.123972
3 -15.392 3.8448 -0.0877859
1 -11.6866 3.94238 -0.0455597
1 -7.75952 3.94485 -0.0637301
2 -3.66698 4.06211 0.0875732
1 0.0252341 3.87182 -0.0519038
2 3.85914 3.85903 0.0248066
1 7.66196 3.99006 0.0635257
2 11.606 3.845 -0.0372944
1 15.3216 3.71167 -0.0225147
3 19.0629 3.66496 0.0983886
3 22.6602 3.5717 -0.182857
3 -19.1769 7.48766 -0.0495811
3 -15.5298 7.68692 -0.172675
1 -11.5998 7.76105 0.03196
2 -7.77568 7.66876 0.00519098
1 -3.90695 7.79569 -0.125677
1 -0.0367361 7.95744 -0.168196
2 3.80682 8.03083 0.05025
2 7.77814 7.89483 0.23686
3 11.6071 7.74422 0.0406317
2 15.5025 7.61212 0.0381597
2 19.5793 7.53261 0.0663256
3 22.0993 7.49584 0.186096
3 -19.2087 11.6085 -0.185638
1 -15.456 11.7126 -0.0405894
2 -11.5966 11.5869 0.097394
1 -7.67354 11.5929 0.128384
2 -3.81466 11.6221 0.154448
1 0.0688628 11.7142 0.0624847
2 3.85786 11.7472 0.184093
2 7.96253 11.7343 0.140364
3 11.7734 11.6067 -0.0905109
1 15.4907 11.521 0.193714
3 19.1252 11.4993 0.0679646
2 -15.4114 15.5373 -0.108584
3 -11.465 15.4245 0.10431
1 -7.57556 15.5708 0.0441153
2 -3.67172 15.7173 0.22354
2 0.12579 15.7873 0.0594063
2 4.00197 15.6921 0.127595
3 7.75581 15.593 0.111044
2 11.8841 15.479 0.0617458
2 15.4929 15.4542 0.0457028
3 -11.6084 19.025 -0.142925
2 -7.69945 19.3788 -0.0638626
2 -3.92756 19.7673 0.252601
1 0.157704 19.5186 0.0736764
3 3.94588 19.5475 0.19033
2 7.89302 19.3573 -0.0371136
3 11.6964 19.091 -0.0543794
3 -4.60998 22.1512 0.0221752
1 0.0222948 22.8881 0.101741
3 4.13534 22.687 0.639677
3 7.89158 22.603 0.326828
1 -3.64674 -22.8354 3.96903
1 -0.113426 -22.8769 3.83096
3 3.81835 -22.7089 4.10463
3 -11.1176 -19.2024 3.96591
3 -7.48003 -19.1331 3.80114
1 -3.69525 -19.1595 3.89318
3 -0.0218082 -19.2882 3.83695
1 3.86463 -19.2219 3.88713
1 7.63814 -19.3501 3.85494
3 -14.7892 -15.3585 3.91691
1 -11.3707 -15.4568 3.78879
3 -7.50692 -15.1992 3.81959
1 -3.71608 -15.4598 3.93218
2 0.170549 -15.6526 3.73934
1 3.90893 -15.5322 3.84671
2 7.50706 -15.5958 3.76952
1 11.3351 -15.5948 3.98945
3 15.0849 -15.3954 4.05085
3 -18.8361 -11.799 3.79232
3 -15.0903 -11.6606 3.74449
3 -11.5011 -11.4991 3.78847
2 -7.67015 -11.5424 3.79351
2 -3.71842 -11.6089 3.82898
1 0.00993949 -11.442 3.89153
1 3.73515 -11.5002 3.62855
2 7.32163 -11.7546 3.86946
2 11.3295 -11.5761 3.96053
2 15.1677 -11.5352 3.90064
3 18.7491 -11.5024 3.81694
1 -15.1295 -7.87175 3.66621
1 -11.4294 -7.80728 3.79202
3 -7.7355 -7.69168 3.86468
3 -3.93802 -7.62036 3.87687
2 -0.0986113 -7.65304 3.67934
2 3.64881 -7.65041 3.71324
1 7.43192 -7.58281 3.78511
2 11.3477 -7.64667 3.85028
2 15.1445 -7.86856 3.93654
2 18.777 -7.81037 3.85564
1 -19.0563 -3.9157 3.76675
2 -15.2466 -3.94455 3.72652
2 -11.4117 -3.81829 3.89398
2 -7.52651 -3.71953 3.94863
1 -3.84421 -3.51281 3.9252
2 -0.123539 -3.73619 3.86956
1 3.71833 -3.72727 3.8989
2 7.45273 -3.71875 3.76714
2 11.2783 -3.92743 3.87281
1 15.2169 -3.92947 3.9448
2 19.0572 -4.01579 3.91933
3 22.4716 -3.89091 3.84276
3 -19.0043 -0.0102842 3.6719
1 -15.3913 -0.108106 3.92702
2 -11.5004 -0.13509 3.95889
2 -7.95276 -0.0283883 3.92165
2 -3.91995 0.141163 3.81061
2 0.00447483 0.0698157 3.83134
2 3.62537 0.105232 4.10457
1 7.52488 0.197571 3.92548
2 11.3321 0.0555717 3.8241
2 15.1641 -0.0120352 3.84254
2 19.0807 -0.0885886 3.95284
2 22.7462 -0.273452 3.90445
3 -19.0909 3.95208 3.88998
2 -15.3479 3.79559 3.84192
1 -11.646 3.74338 3.86772
2 -7.75373 3.95908 3.82816
1 -3.9153 3.87339 3.84979
2 -0.0733186 4.09615 3.78556
2 3.79443 3.96655 3.77361
2 7.85679 4.00578 3.82318
2 11.6738 3.92752 3.79184
1 15.3721 3.83838 3.83859
2 19.0546 3.76408 3.8272
3 22.8576 3.79452 3.65662
2 -19.2744 7.67393 3.87106
2 -15.4218 7.76591 3.84482
2 -11.6277 7.71967 3.73842
1 -7.68573 7.88484 3.82979
1 -3.88604 7.83224 3.9485
2 0.142225 7.91289 3.95513
2 3.90798 7.78581 3.90687
1 7.76587 7.79979 3.96164
2 11.6635 7.70321 3.89684
2 15.3437 7.61683 3.89569
1 19.0408 7.83099 3.76595
2 -19.5811 11.7923 4.12881
2 -15.5741 11.5925 3.95649
3 -11.6119 11.602 3.80407
2 -7.74113 11.6763 3.90034
2 -3.88363 11.6222 3.83789
1 0.0717587 11.8578 3.82006
2 4.0699 11.6715 3.88243
2 7.7216 11.8279 3.96747
2 11.696 11.5523 3.93511
3 15.4406 11.5643 3.92498
2 19.0518 11.315 3.72425
1 -15.5082 15.4424 3.85352
3 -11.6552 15.5433 3.96853
1 -7.69199 15.7529 3.86367
2 -3.99145 15.702 4.08191
2 0.251324 15.7297 4.15038
2 4.02143 15.7112 4.07235
2 7.78534 15.632 3.96843
2 11.791 15.3406 4.05477
1 15.5082 15.1203 3.55437
2 -11.7322 19.2625 3.83425
2 -7.86395 19.2051 4.15765
2 -4.00562 19.4086 4.13108
2 0.296675 19.518 3.94844
2 3.98056 19.3977 4.04703
2 8.17843 19.2309 3.99754
3 12.1885 18.7509 3.91749
3 -5.94824 20.8364 4.24178
2 0.669186 23.0759 4.25689
1 -11.1203 -18.9519 7.70564
3 -7.53753 -19.0039 7.8319
2 -3.78358 -19.1316 7.68613
3 -0.0579894 -19.2091 7.90916
2 3.84804 -19.2514 7.75136
3 7.72002 -19.1137 8.19366
2 -14.9049 -15.473 7.69783
3 -11.2602 -15.3437 7.66636
2 -7.51717 -15.2625 7.59048
3 -3.67364 -15.5521 7.71005
3 0.0746437 -15.5591 7.79285
2 3.80901 -15.6565 7.74177
2 7.60141 -15.4455 7.73918
2 11.3081 -15.2651 7.79345
3 14.7365 -15.2028 7.79658
3 -18.7165 -12.0237 7.90594
2 -15.1458 -11.6643 7.72297
3 -11.5072 -11.5198 7.71033
2 -7.69827 -11.4951 7.71989
2 -3.79195 -11.563 7.57678
2 -0.0227592 -11.7061 7.54173
2 3.78639 -11.6414 7.70274
2 7.48825 -11.4523 7.64603
1 11.3435 -11.4308 7.61351
1 15.0754 -11.5443 7.66751
2 -18.8375 -8.07013 8.24318
1 -15.3344 -7.91514 7.65728
3 -11.5738 -7.65645 7.59311
2 -7.49323 -7.61522 7.85356
2 -3.64172 -7.66274 7.70421
2 -0.135 -7.60478 7.57146
2 3.69372 -7.6442 7.6407
2 7.5384 -7.56787 7.66494
2 11.2428 -7.68172 7.57072
2 15.0924 -7.86365 7.67099
2 18.9072 -7.77109 7.70604
2 -18.9019 -3.83005 7.47122
2 -15.3034 -3.8774 7.71494
2 -11.6872 -4.03223 7.70094
2 -7.7501 -3.9513 7.74185
2 -3.85933 -3.71041 7.73891
3 -0.0647894 -3.82106 7.62844
2 3.78322 -3.68311 7.67451
2 7.5945 -3.81867 7.71496
1 11.3263 -3.61543 7.72521
1 15.3175 -3.87963 7.69241
3 19.069 -3.87898 7.77145
3 -19.0253 0.0680773 7.5654
2 -15.0714 0.0592673 7.72527
2 -11.3475 0.0661363 7.84178
1 -7.83469 0.0469413 7.84984
2 -3.86551 0.159136 7.79832
2 -0.0841037 0.111022 7.83644
2 3.59323 0.204693 7.70606
1 7.50361 0.0847711 7.89583
1 11.3297 -0.0386757 7.76899
2 15.302 -0.0199451 7.75438
3 19.1783 -0.214663 7.72132
3 -19.1713 3.55598 7.85146
2 -15.5021 3.7833 7.5452
2 -11.5318 3.89832 7.69172
2 -7.7344 3.74689 7.70155
2 -3.82311 4.04513 7.95316
2 0.0125775 4.00373 7.63455
1 3.85735 3.9806 7.65539
1 7.49335 3.94866 7.60167
2 11.6083 3.88298 7.74959
2 15.3883 3.79908 7.71007
3 19.2134 3.83854 7.76385
3 -19.188 7.57928 7.7468
2 -15.4381 7.50632 7.73583
3 -11.6158 7.5827 7.77107
2 -7.7438 7.89993 7.79016
2 -3.82532 7.8476 7.61334
2 -0.0226943 7.88134 7.64778
2 3.9044 7.9157 7.63317
2 7.71348 7.89445 7.61713
2 11.5327 7.8222 7.94198
3 15.5658 7.63696 7.64777
2 19.4112 7.61118 7.71678
1 -15.4295 11.4424 7.70444
1 -11.5403 11.594 7.7343
1 -7.69354 11.6477 7.81602
2 -4.00446 11.6682 7.81189
2 0.0410669 11.8112 7.79712
1 3.89306 11.8085 7.66187
2 7.81355 11.7161 7.86932
2 11.4423 11.6019 7.80151
2 15.4752 11.4766 7.73104
2 19.0758 11.5857 7.6668
3 -11.6003 15.3679 7.71909
2 -7.59623 15.5036 7.90158
2 -3.96564 15.5124 7.75901
2 -0.0341329 15.6221 7.95121
2 4.06077 15.5798 7.97158
1 7.94356 15.5043 8.00193
1 11.7398 15.4322 7.7807
2 15.3004 15.0637 7.88992
3 -11.5213 19.0281 7.75554
1 -7.97528 19.0574 7.9342
2 -3.95532 19.2833 8.19051
2 0.157303 19.4078 8.04474
3 4.06764 19.2806 7.81996
3 7.94776 19.1601 7.81358
3 -3.84682 -18.8959 11.6776
3 0.101952 -19.2957 11.678
3 3.922 -19.0063 11.6465
3 -11.2045 -15.2458 11.4868
3 -7.59867 -15.3947 11.4573
3 -3.63731 -15.2738 11.5709
3 0.00477486 -15.5044 11.6714
2 3.95433 -15.2621 11.7617
1 7.62833 -15.1892 11.6145
3 11.2916 -14.974 11.6063
2 -15.2692 -11.9971 11.9148
2 -11.4603 -11.6988 11.6231
2 -7.49418 -11.5534 11.6229
2 -3.79376 -11.8129 11.5427
1 -0.0399891 -11.5705 11.5202
2 3.70131 -11.5405 11.4503
1 7.49261 -11.4023 11.4004
3 11.3542 -11.3926 11.4871
3 15.0989 -11.4735 11.4787
1 -18.1212 -7.9851 10.6765
3 -15.3068 -7.69956 11.7119
1 -11.3196 -7.80132 11.8361
1 -7.5989 -7.898 11.5325
2 -3.80073 -7.8558 11.5943
3 -0.016437 -7.75953 11.5085
2 3.58652 -7.7895 11.5425
1 7.50604 -7.64445 11.4927
1 11.4124 -7.644 11.5095
1 15.3235 -7.77156 11.385
1 -19.0635 -3.79948 11.3136
2 -15.2708 -4.08709 11.7149
2 -11.4484 -3.91811 11.5785
2 -7.77686 -3.96419 11.6603
2 -3.93961 -3.69165 11.5717
2 0.0845232 -3.71435 11.5893
1 3.71038 -3.81143 11.5584
1 7.55216 -3.88479 11.5125
3 11.4685 -3.78634 11.4851
2 15.2433 -4.13564 11.4742
3 18.8409 -3.93189 11.4886
3 -18.8052 -0.284541 11.7546
1 -15.4904 -0.0165251 11.6094
2 -11.6286 -0.0498263 11.796
1 -7.81833 0.0868325 11.651
1 -3.91186 0.0299007 11.8449
2 -0.133735 -0.0292031 11.8848
1 3.68969 0.0963758 11.6371
1 7.57608 0.094098 11.6196
2 11.4065 -0.0168807 11.6585
2 15.2006 -0.229123 11.5264
3 18.8557 -0.221002 11.4706
3 -19.3207 3.96113 11.7885
1 -15.4958 3.92831 11.6239
2 -11.6504 3.84618 11.6317
2 -7.66678 4.0393 11.5873
1 -3.71668 4.02963 11.7133
2 0.126147 3.9722 11.4416
1 3.83933 4.01543 11.3422
2 7.75455 3.94604 11.4906
3 11.62 3.84947 11.4013
3 15.3228 3.71449 11.322
3 18.9935 3.85114 11.4885
2 -17.0384 7.58677 13.3365
3 -15.3588 7.72859 11.4493
2 -11.5755 7.69895 11.6842
1 -7.79841 7.68752 11.6734
2 -3.93597 7.97459 11.6235
2 -0.0126996 7.90691 11.7136
1 3.81207 7.79712 11.6478
1 7.59758 7.64189 11.8195
1 11.6288 7.68516 11.6114
3 15.3795 7.70162 11.4823
3 18.9001 7.73086 11.662
1 -15.4459 11.8141 11.7584
3 -11.6236 11.489 11.7154
2 -7.80897 11.5626 11.5962
3 -3.86676 11.6344 11.4732
2 -0.217715 11.5099 11.671
1 3.81957 11.6645 11.587
2 7.68367 11.6154 11.705
1 11.6453 11.3859 11.7731
3 15.268 11.4284 11.5328
1 -11.7714 15.4679 11.6138
2 -7.67183 15.1849 11.7158
1 -3.92602 15.3437 11.7038
3 -0.068741 15.3729 11.7211
2 3.83549 15.6412 11.745
1 7.78437 15.5622 11.7469
2 11.8034 15.2016 11.9231
3 -7.91601 18.8823 11.9096
3 -3.68409 18.9775 11.9801
2 -0.366083 19.1425 11.9227
3 3.69503 19.0161 11.6623
3 7.70544 18.9457 11.8586
3 -7.4703 -15.3665 15.2637
2 -3.87084 -15.3176 15.1739
2 0.0637205 -15.2555 15.5312
3 3.87114 -15.1881 15.2358
3 7.60493 -15.0983 15.2509
2 -11.5222 -11.7196 15.2158
2 -7.65096 -11.5794 15.2998
2 -3.78492 -11.7926 15.5722
2 0.0833411 -11.5021 15.3656
3 3.77385 -11.4998 15.3738
2 7.64942 -11.5309 15.3196
3 11.2901 -11.4437 15.1632
2 -15.2073 -9.69723 13.4278
2 -11.6604 -7.75402 15.7061
1 -7.63562 -7.81759 15.7214
1 -3.76369 -7.66525 15.4603
2 -0.0873122 -7.70817 15.3638
2 3.92319 -7.51938 15.3878
2 7.50054 -7.90561 15.311
3 11.3845 -7.65216 15.2847
3 15.1475 -7.82895 15.1179
3 -15.0509 -3.85426 15.4108
2 -11.6543 -4.01129 15.6484
3 -7.64694 -3.99245 15.5871
2 -3.85384 -3.83746 15.5177
1 -0.0523642 -3.79056 15.4043
3 3.85465 -3.70393 15.4223
2 7.57143 -3.90052 15.1568
2 11.4978 -4.10187 15.2443
1 15.326 -4.07768 15.1591
2 -15.2841 0.045491 15.5521
1 -11.6552 0.0399974 15.4071
2 -7.70563 0.0723311 15.4846
2 -3.86485 0.1071 15.6192
2 0.083508 0.100466 15.6269
2 3.73366 0.0253923 15.4253
1 7.76393 -0.0721405 15.3766
3 11.5417 0.0573362 15.4303
1 15.4165 0.107281 15.2871
2 -15.4718 4.0158 15.4157
2 -11.5784 3.83942 15.5811
1 -7.76532 3.87351 15.4376
2 -3.81187 4.06147 15.5522
2 0.0601918 4.08249 15.4574
3 3.79388 3.96965 15.3478
1 7.66404 3.99442 15.4168
1 11.4737 3.82482 15.4136
3 15.133 3.74983 15.1958
3 -15.2702 7.78401 15.15
1 -11.7672 7.85383 15.6184
2 -7.70274 7.78883 15.5533
1 -3.86738 7.88241 15.4823
1 -0.0452524 7.80415 15.522
2 3.74012 7.82992 15.5507
2 7.57443 7.6456 15.3805
3 11.4391 7.61922 15.3485
2 -11.6503 11.6187 15.4855
2 -7.75655 11.519 15.3201
2 -3.92513 11.55 15.5377
2 0.0326538 11.6598 15.461
2 3.87478 11.6394 15.4404
3 7.74399 11.483 15.4912
2 11.5061 11.2021 15.5319
3 -7.68434 15.1023 15.4435
3 -3.99484 15.1776 15.4668
2 -0.145695 15.3088 15.267
3 3.86774 15.4039 15.5801
2 7.78617 15.1235 15.4879
3 -3.63689 -11.4498 18.9998
2 -0.153414 -11.5602 19.1012
3 -7.61764 -7.69424 19.099
3 -3.62821 -7.7011 19.1172
1 -0.0118629 -7.60251 19.274
3 3.73189 -7.58309 19.0998
3 7.63575 -7.56516 19.0107
3 11.4952 -7.99926 18.9424
3 -7.82345 -3.57382 19.1019
1 -3.70102 -3.87312 19.14
2 -0.0303916 -3.80746 19.401
1 3.91823 -3.79285 19.2339
2 7.85618 -3.46442 19.2297
3 11.7045 -4.17426 19.0076
1 -11.5797 -0.14505 19.3064
3 -7.61475 0.149701 19.1845
3 -3.74731 0.0734913 19.2993
1 0.00520954 0.0396933 19.1306
3 3.81222 0.123184 19.1266
2 7.64632 0.0272703 18.9124
2 11.2934 0.158301 19.2308
1 -8.04404 4.18685 19.4067
1 -3.90133 4.0218 19.2614
2 0.102273 3.91214 19.2331
2 3.9047 3.93562 19.0917
3 7.57576 3.87312 19.0925
3 11.3469 3.67792 18.954
1 -7.89695 8.06906 19.2125
3 -3.83519 7.86654 19.3952
1 0.0311558 7.7818 19.0736
3 3.93129 7.55809 19.1877
3 7.61449 7.53517 19.2027
1 -3.83175 11.6332 18.8626
3 -0.0648907 11.6777 19.1826
2 3.97909 11.8057 19.1075
3 7.69322 11.4971 18.7547
3 -0.0513849 -3.61269 22.6756
2 -0.0327006 0.291137 22.8813
3 3.7664 -0.0364997 22.8915
3 7.57036 -1.63013 20.9963
1 0.1357 4.04253 22.6833
3 3.62096 3.97998 22.4794
3 0.174989 7.50464 22.2997
2 -1.69402 -6.12429 -22.9663
3 -6.84134 -3.21643 -21.3648
3 -2.21223 -1.93576 -22.3295
3 1.87688 -1.9343 -22.694
3 -5.78268 1.5589 -22.1935
3 0.111631 2.27202 -21.0554
3 2.04688 2.2336 -22.6699
3 5.85007 1.89674 -22.5363
3 -1.81127 5.9825 -22.6525
2 1.88864 5.81344 -22.5682
3 -1.97814 -13.3258 -19.0219
3 -11.4667 -9.78342 -17.0725
3 -5.57238 -9.74392 -19.2254
3 -1.88485 -9.67462 -19.2707
2 1.96187 -9.60069 -19.2165
3 5.65783 -9.78357 -19.0544
3 9.49798 -9.85785 -19.0605
3 -9.70649 -5.68301 -19.0547
2 -5.6621 -5.78048 -19.1897
3 -2.00151 -5.91091 -19.4227
2 1.97836 -5.91779 -19.2087
1 6.16383 -6.10442 -19.6037
2 9.55439 -5.94869 -18.9443
2 -13.3485 -2.09829 -19.0542
3 -9.68892 -1.80191 -19.1804
2 -5.75215 -1.82264 -19.6257
1 -2.19606 -1.9926 -19.7224
2 1.76277 -1.89238 -19.2958
2 5.82216 -1.71519 -19.1839
3 9.62994 -1.87972 -19.0972
3 -13.3148 2.02269 -18.8704
3 -9.59683 1.99153 -19.2207
1 -5.8345 1.91168 -19.2431
2 -1.74263 2.12568 -19.3006
2 1.83441 2.02783 -19.1456
2 5.78632 1.76571 -19.2508
1 9.64274 1.88935 -19.0306
3 -13.3943 5.86352 -19.0086
3 -9.61465 5.7713 -19.0565
2 -5.73405 6.0236 -19.2607
3 -1.94553 6.00142 -18.9914
3 2.03429 5.86733 -19.0503
2 5.79759 5.79894 -18.9826
2 9.62678 5.98388 -19
3 -9.66557 9.34164 -19.1946
3 -5.52648 9.81468 -18.887
2 -1.86783 9.79699 -19.1143
3 1.85532 9.64596 -18.7223
3 5.89269 9.64917 -18.9254
3 9.58759 7.63762 -17.1119
3 -3.93929 13.52 -16.9461
3 -2.21146 13.3812 -18.3625
3 1.76912 13.6214 -18.7815
3 5.93227 14.0217 -17.6865
3 -5.78766 -17.2444 -15.1576
3 -2.19195 -17.3588 -15.1847
3 2.00327 -17.2356 -15.3856
1 5.7689 -17.2443 -15.3306
2 -9.53186 -13.3538 -15.4175
2 -5.80533 -13.2951 -15.4575
2 -1.94742 -13.7278 -15.5532
2 1.68542 -13.6597 -15.4615
2 5.67732 -13.5059 -15.5077
3 9.41291 -13.6298 -15.4105
2 -13.3523 -9.8128 -15.3293
2 -9.62685 -9.7604 -15.3512
2 -5.8237 -9.77651 -15.6757
3 -2.05857 -9.71949 -15.4045
2 1.90808 -9.65216 -15.5936
2 5.81144 -9.67795 -15.5711
1 9.52654 -9.75603 -15.4859
3 -16.4353 -6.01259 -15.3961
3 -13.4922 -5.87444 -15.5533
2 -9.70444 -5.89532 -15.6297
2 -5.6528 -5.86618 -15.5331
1 -1.91216 -5.89112 -15.4512
2 1.72456 -5.89068 -15.6311
2 5.81153 -5.73975 -15.3903
1 9.42812 -5.90744 -15.3671
1 13.5037 -6.03468 -15.5628
3 17.0488 -6.20793 -15.26
3 -16.7892 -2.17741 -15.48
1 -13.4559 -2.04552 -15.5043
2 -9.64151 -1.93776 -15.6054
2 -5.91386 -1.81465 -15.642
1 -1.90375 -1.92955 -15.4924
1 1.88677 -2.00079 -15.5624
2 5.84916 -2.05952 -15.4686
2 9.65425 -1.96321 -15.3713
3 13.4137 -2.33526 -15.2376
2 17.2518 -2.24208 -15.2145
3 -17.111 1.83038 -15.4526
1 -13.4516 1.90389 -15.3139
3 -9.75279 1.94356 -15.4353
1 -5.92773 2.0738 -15.4185
2 -1.98192 1.92586 -15.4577
1 1.91466 2.09746 -15.4082
1 5.77467 1.80427 -15.326
2 9.5559 1.78871 -15.4411
1 13.4617 1.72685 -15.3431
3 -16.3108 5.76024 -15.0043
3 -13.6313 5.91849 -15.1973
2 -9.78332 5.80813 -15.3688
3 -5.76511 5.86613 -15.3446
1 -1.84671 5.83605 -15.3316
1 1.94347 5.9252 -15.3012
2 5.75975 5.93739 -15.3389
2 9.61432 5.67369 -15.2166
2 13.3408 5.71189 -15.2398
3 16.8144 5.94436 -15.37
2 -13.2698 9.82302 -15.6941
2 -9.60802 9.58136 -15.5684
2 -6.03015 9.83378 -15.4056
3 -2.08663 9.71682 -15.252
1 2.03845 9.77895 -15.2841
2 5.89538 9.97986 -15.1883
2 9.6101 9.59215 -15.0133
3 13.069 9.42205 -15.0275
3 -9.83644 13.3333 -15.5338
2 -5.97891 13.6314 -15.6047
1 -2.07821 13.53 -15.0899