LAMMPS DATA FOR MEAM SIMULATION

   3643   atoms
      3   atom types

  -33.55   33.55   xlo xhi
  -33.55   33.55   ylo yhi
  -33.55   33.55   zlo zhi

 Atoms

     1   3     3.92444    -3.92444   -23.54666
     2   3     0.00000     3.92444   -23.54666
     3   3    -3.92444   -11.77333   -19.62221
     4   2     0.00000   -11.77333   -19.62221
     5   2     3.92444   -11.77333   -19.62221
     6   3     7.84889   -11.77333   -19.62221
     7   3   -11.77333    -7.84889   -19.62221
     8   3     0.00000    -7.84889   -19.62221
     9   3     3.92444    -7.84889   -19.62221
    10   3     7.84889    -7.84889   -19.62221
    11   3    11.77333    -7.84889   -19.62221
    12   3   -11.77333    -3.92444   -19.62221
    13   3    -3.92444    -3.92444   -19.62221
    14   2     0.00000    -3.92444   -19.62221
    15   1     3.92444    -3.92444   -19.62221
    16   2     7.84889    -3.92444   -19.62221
    17   2    11.77333    -3.92444   -19.62221
    18   3    -7.84889     0.00000   -19.62221
    19   3    -3.92444     0.00000   -19.62221
    20   1     0.00000     0.00000   -19.62221
    21   3     3.92444     0.00000   -19.62221
    22   1     7.84889     0.00000   -19.62221
    23   1    11.77333     0.00000   -19.62221
    24   3   -11.77333     3.92444   -19.62221
    25   3    -7.84889     3.92444   -19.62221
    26   2     0.00000     3.92444   -19.62221
    27   2     3.92444     3.92444   -19.62221
    28   1     7.84889     3.92444   -19.62221
    29   1    11.77333     3.92444   -19.62221
    30   2    -7.84889     7.84889   -19.62221
    31   3    -3.92444     7.84889   -19.62221
    32   1     0.00000     7.84889   -19.62221
    33   3     3.92444     7.84889   -19.62221
    34   3     7.84889     7.84889   -19.62221
    35   3    11.77333     7.84889   -19.62221
    36   1    -3.92444    11.77333   -19.62221
    37   3     0.00000    11.77333   -19.62221
    38   3    -7.84889   -15.69777   -15.69777
    39   2    -3.92444   -15.69777   -15.69777
    40   3   -11.77333   -11.77333   -15.69777
    41   3    -7.84889   -11.77333   -15.69777
    42   3    -3.92444   -11.77333   -15.69777
    43   3     0.00000   -11.77333   -15.69777
    44   3     3.92444   -11.77333   -15.69777
    45   3     7.84889   -11.77333   -15.69777
    46   3    11.77333   -11.77333   -15.69777
    47   3   -15.69777    -7.84889   -15.69777
    48   1   -11.77333    -7.84889   -15.69777
    49   3    -7.84889    -7.84889   -15.69777
    50   2    -3.92444    -7.84889   -15.69777
    51   3     0.00000    -7.84889   -15.69777
    52   1     3.92444    -7.84889   -15.69777
    53   2     7.84889    -7.84889   -15.69777
    54   2    11.77333    -7.84889   -15.69777
    55   2    15.69777    -7.84889   -15.69777
    56   3   -15.69777    -3.92444   -15.69777
    57   3   -11.77333    -3.92444   -15.69777
    58   2    -7.84889    -3.92444   -15.69777
    59   2    -3.92444    -3.92444   -15.69777
    60   2     0.00000    -3.92444   -15.69777
    61   2     3.92444    -3.92444   -15.69777
    62   1     7.84889    -3.92444   -15.69777
    63   2    11.77333    -3.92444   -15.69777
    64   2    15.69777    -3.92444   -15.69777
    65   3   -15.69777     0.00000   -15.69777
    66   1   -11.77333     0.00000   -15.69777
    67   2    -7.84889     0.00000   -15.69777
    68   1    -3.92444     0.00000   -15.69777
    69   3     0.00000     0.00000   -15.69777
    70   2     3.92444     0.00000   -15.69777
    71   1     7.84889     0.00000   -15.69777
    72   2    11.77333     0.00000   -15.69777
    73   2    15.69777     0.00000   -15.69777
    74   3   -15.69777     3.92444   -15.69777
    75   3   -11.77333     3.92444   -15.69777
    76   2    -7.84889     3.92444   -15.69777
    77   2    -3.92444     3.92444   -15.69777
    78   1     0.00000     3.92444   -15.69777
    79   2     3.92444     3.92444   -15.69777
    80   1     7.84889     3.92444   -15.69777
    81   2    11.77333     3.92444   -15.69777
    82   2    15.69777     3.92444   -15.69777
    83   3   -11.77333     7.84889   -15.69777
    84   1    -7.84889     7.84889   -15.69777
    85   2    -3.92444     7.84889   -15.69777
    86   1     0.00000     7.84889   -15.69777
    87   2     3.92444     7.84889   -15.69777
    88   2     7.84889     7.84889   -15.69777
    89   3    11.77333     7.84889   -15.69777
    90   1    15.69777     7.84889   -15.69777
    91   3   -11.77333    11.77333   -15.69777
    92   2    -7.84889    11.77333   -15.69777
    93   1    -3.92444    11.77333   -15.69777
    94   2     0.00000    11.77333   -15.69777
    95   1     3.92444    11.77333   -15.69777
    96   3    11.77333    11.77333   -15.69777
    97   2    -7.84889    15.69777   -15.69777
    98   3    -3.92444    15.69777   -15.69777
    99   3     0.00000    15.69777   -15.69777
   100   3     3.92444    15.69777   -15.69777
   101   2    -7.84889   -19.62221   -11.77333
   102   3    -3.92444   -19.62221   -11.77333
   103   3     3.92444   -19.62221   -11.77333
   104   1   -11.77333   -15.69777   -11.77333
   105   3    -3.92444   -15.69777   -11.77333
   106   1     0.00000   -15.69777   -11.77333
   107   1     3.92444   -15.69777   -11.77333
   108   3     7.84889   -15.69777   -11.77333
   109   3    11.77333   -15.69777   -11.77333
   110   3   -15.69777   -11.77333   -11.77333
   111   2   -11.77333   -11.77333   -11.77333
   112   2    -7.84889   -11.77333   -11.77333
   113   3    -3.92444   -11.77333   -11.77333
   114   2     0.00000   -11.77333   -11.77333
   115   1     3.92444   -11.77333   -11.77333
   116   1     7.84889   -11.77333   -11.77333
   117   2    11.77333   -11.77333   -11.77333
   118   3    15.69777   -11.77333   -11.77333
   119   3   -19.62221    -7.84889   -11.77333
   120   3   -15.69777    -7.84889   -11.77333
   121   2   -11.77333    -7.84889   -11.77333
   122   1    -7.84889    -7.84889   -11.77333
   123   2    -3.92444    -7.84889   -11.77333
   124   2     0.00000    -7.84889   -11.77333
   125   2     3.92444    -7.84889   -11.77333
   126   2     7.84889    -7.84889   -11.77333
   127   3    11.77333    -7.84889   -11.77333
   128   1   -15.69777    -3.92444   -11.77333
   129   2   -11.77333    -3.92444   -11.77333
   130   2    -7.84889    -3.92444   -11.77333
   131   2    -3.92444    -3.92444   -11.77333
   132   1     0.00000    -3.92444   -11.77333
   133   1     3.92444    -3.92444   -11.77333
   134   2     7.84889    -3.92444   -11.77333
   135   2    11.77333    -3.92444   -11.77333
   136   1    15.69777    -3.92444   -11.77333
   137   2   -19.62221     0.00000   -11.77333
   138   1   -15.69777     0.00000   -11.77333
   139   1   -11.77333     0.00000   -11.77333
   140   1    -7.84889     0.00000   -11.77333
   141   2    -3.92444     0.00000   -11.77333
   142   2     0.00000     0.00000   -11.77333
   143   2     3.92444     0.00000   -11.77333
   144   2     7.84889     0.00000   -11.77333
   145   2    11.77333     0.00000   -11.77333
   146   1    15.69777     0.00000   -11.77333
   147   3    19.62221     0.00000   -11.77333
   148   3   -19.62221     3.92444   -11.77333
   149   3   -15.69777     3.92444   -11.77333
   150   2   -11.77333     3.92444   -11.77333
   151   2    -7.84889     3.92444   -11.77333
   152   3    -3.92444     3.92444   -11.77333
   153   3     0.00000     3.92444   -11.77333
   154   1     3.92444     3.92444   -11.77333
   155   2     7.84889     3.92444   -11.77333
   156   2    11.77333     3.92444   -11.77333
   157   3    15.69777     3.92444   -11.77333
   158   3   -19.62221     7.84889   -11.77333
   159   1   -11.77333     7.84889   -11.77333
   160   3    -7.84889     7.84889   -11.77333
   161   2    -3.92444     7.84889   -11.77333
   162   1     0.00000     7.84889   -11.77333
   163   2     3.92444     7.84889   -11.77333
   164   2     7.84889     7.84889   -11.77333
   165   1    11.77333     7.84889   -11.77333
   166   3    15.69777     7.84889   -11.77333
   167   3   -15.69777    11.77333   -11.77333
   168   2   -11.77333    11.77333   -11.77333
   169   1    -7.84889    11.77333   -11.77333
   170   2    -3.92444    11.77333   -11.77333
   171   2     0.00000    11.77333   -11.77333
   172   2     3.92444    11.77333   -11.77333
   173   2     7.84889    11.77333   -11.77333
   174   1    11.77333    11.77333   -11.77333
   175   3   -11.77333    15.69777   -11.77333
   176   3    -7.84889    15.69777   -11.77333
   177   2    -3.92444    15.69777   -11.77333
   178   1     0.00000    15.69777   -11.77333
   179   2     3.92444    15.69777   -11.77333
   180   3     7.84889    15.69777   -11.77333
   181   3     0.00000    19.62221   -11.77333
   182   3     3.92444    19.62221   -11.77333
   183   3     7.84889    19.62221   -11.77333
   184   1   -11.77333   -19.62221    -7.84889
   185   3    -3.92444   -19.62221    -7.84889
   186   2     0.00000   -19.62221    -7.84889
   187   3     7.84889   -19.62221    -7.84889
   188   3    11.77333   -19.62221    -7.84889
   189   3   -11.77333   -15.69777    -7.84889
   190   2    -7.84889   -15.69777    -7.84889
   191   2    -3.92444   -15.69777    -7.84889
   192   2     0.00000   -15.69777    -7.84889
   193   2     3.92444   -15.69777    -7.84889
   194   3     7.84889   -15.69777    -7.84889
   195   2    11.77333   -15.69777    -7.84889
   196   3   -19.62221   -11.77333    -7.84889
   197   2   -15.69777   -11.77333    -7.84889
   198   2   -11.77333   -11.77333    -7.84889
   199   2    -7.84889   -11.77333    -7.84889
   200   1    -3.92444   -11.77333    -7.84889
   201   1     0.00000   -11.77333    -7.84889
   202   1     3.92444   -11.77333    -7.84889
   203   1     7.84889   -11.77333    -7.84889
   204   1    11.77333   -11.77333    -7.84889
   205   2    15.69777   -11.77333    -7.84889
   206   3    19.62221   -11.77333    -7.84889
   207   2   -15.69777    -7.84889    -7.84889
   208   1   -11.77333    -7.84889    -7.84889
   209   2    -7.84889    -7.84889    -7.84889
   210   2    -3.92444    -7.84889    -7.84889
   211   2     0.00000    -7.84889    -7.84889
   212   2     3.92444    -7.84889    -7.84889
   213   1     7.84889    -7.84889    -7.84889
   214   2    11.77333    -7.84889    -7.84889
   215   2    15.69777    -7.84889    -7.84889
   216   2    19.62221    -7.84889    -7.84889
   217   3   -19.62221    -3.92444    -7.84889
   218   2   -15.69777    -3.92444    -7.84889
   219   2   -11.77333    -3.92444    -7.84889
   220   1    -7.84889    -3.92444    -7.84889
   221   2    -3.92444    -3.92444    -7.84889
   222   1     0.00000    -3.92444    -7.84889
   223   1     3.92444    -3.92444    -7.84889
   224   1     7.84889    -3.92444    -7.84889
   225   2    11.77333    -3.92444    -7.84889
   226   1    15.69777    -3.92444    -7.84889
   227   2    19.62221    -3.92444    -7.84889
   228   3   -19.62221     0.00000    -7.84889
   229   1   -15.69777     0.00000    -7.84889
   230   1   -11.77333     0.00000    -7.84889
   231   2    -7.84889     0.00000    -7.84889
   232   1    -3.92444     0.00000    -7.84889
   233   1     0.00000     0.00000    -7.84889
   234   1     3.92444     0.00000    -7.84889
   235   1     7.84889     0.00000    -7.84889
   236   3    11.77333     0.00000    -7.84889
   237   2    15.69777     0.00000    -7.84889
   238   2    19.62221     0.00000    -7.84889
   239   3    23.54666     0.00000    -7.84889
   240   3   -19.62221     3.92444    -7.84889
   241   2   -15.69777     3.92444    -7.84889
   242   2   -11.77333     3.92444    -7.84889
   243   2    -7.84889     3.92444    -7.84889
   244   2    -3.92444     3.92444    -7.84889
   245   2     0.00000     3.92444    -7.84889
   246   2     3.92444     3.92444    -7.84889
   247   2     7.84889     3.92444    -7.84889
   248   2    11.77333     3.92444    -7.84889
   249   2    15.69777     3.92444    -7.84889
   250   1    19.62221     3.92444    -7.84889
   251   3   -15.69777     7.84889    -7.84889
   252   2   -11.77333     7.84889    -7.84889
   253   1    -7.84889     7.84889    -7.84889
   254   2    -3.92444     7.84889    -7.84889
   255   2     0.00000     7.84889    -7.84889
   256   2     3.92444     7.84889    -7.84889
   257   1     7.84889     7.84889    -7.84889
   258   1    11.77333     7.84889    -7.84889
   259   1    15.69777     7.84889    -7.84889
   260   2    19.62221     7.84889    -7.84889
   261   1   -15.69777    11.77333    -7.84889
   262   2   -11.77333    11.77333    -7.84889
   263   2    -7.84889    11.77333    -7.84889
   264   2    -3.92444    11.77333    -7.84889
   265   2     0.00000    11.77333    -7.84889
   266   2     3.92444    11.77333    -7.84889
   267   2     7.84889    11.77333    -7.84889
   268   3    11.77333    11.77333    -7.84889
   269   1    15.69777    11.77333    -7.84889
   270   3    19.62221    11.77333    -7.84889
   271   3   -11.77333    15.69777    -7.84889
   272   1    -3.92444    15.69777    -7.84889
   273   3     0.00000    15.69777    -7.84889
   274   2     3.92444    15.69777    -7.84889
   275   3     7.84889    15.69777    -7.84889
   276   3    11.77333    15.69777    -7.84889
   277   3    15.69777    15.69777    -7.84889
   278   2    -7.84889    19.62221    -7.84889
   279   2    -3.92444    19.62221    -7.84889
   280   2     3.92444    19.62221    -7.84889
   281   3     7.84889    19.62221    -7.84889
   282   3     0.00000   -23.54666    -3.92444
   283   3     3.92444   -23.54666    -3.92444
   284   1    -3.92444   -19.62221    -3.92444
   285   2     0.00000   -19.62221    -3.92444
   286   3     3.92444   -19.62221    -3.92444
   287   3     7.84889   -19.62221    -3.92444
   288   2    11.77333   -19.62221    -3.92444
   289   2   -15.69777   -15.69777    -3.92444
   290   2   -11.77333   -15.69777    -3.92444
   291   3    -7.84889   -15.69777    -3.92444
   292   1    -3.92444   -15.69777    -3.92444
   293   2     0.00000   -15.69777    -3.92444
   294   1     3.92444   -15.69777    -3.92444
   295   2     7.84889   -15.69777    -3.92444
   296   1    11.77333   -15.69777    -3.92444
   297   2   -19.62221   -11.77333    -3.92444
   298   1   -15.69777   -11.77333    -3.92444
   299   2   -11.77333   -11.77333    -3.92444
   300   1    -7.84889   -11.77333    -3.92444
   301   1    -3.92444   -11.77333    -3.92444
   302   2     0.00000   -11.77333    -3.92444
   303   2     3.92444   -11.77333    -3.92444
   304   2     7.84889   -11.77333    -3.92444
   305   2    11.77333   -11.77333    -3.92444
   306   2    15.69777   -11.77333    -3.92444
   307   3    19.62221   -11.77333    -3.92444
   308   3   -19.62221    -7.84889    -3.92444
   309   3   -15.69777    -7.84889    -3.92444
   310   3   -11.77333    -7.84889    -3.92444
   311   2    -7.84889    -7.84889    -3.92444
   312   2    -3.92444    -7.84889    -3.92444
   313   3     0.00000    -7.84889    -3.92444
   314   2     3.92444    -7.84889    -3.92444
   315   2     7.84889    -7.84889    -3.92444
   316   2    11.77333    -7.84889    -3.92444
   317   3    15.69777    -7.84889    -3.92444
   318   1    19.62221    -7.84889    -3.92444
   319   1   -19.62221    -3.92444    -3.92444
   320   2   -15.69777    -3.92444    -3.92444
   321   2   -11.77333    -3.92444    -3.92444
   322   1    -7.84889    -3.92444    -3.92444
   323   2    -3.92444    -3.92444    -3.92444
   324   1     0.00000    -3.92444    -3.92444
   325   1     3.92444    -3.92444    -3.92444
   326   2     7.84889    -3.92444    -3.92444
   327   2    11.77333    -3.92444    -3.92444
   328   3    15.69777    -3.92444    -3.92444
   329   3    19.62221    -3.92444    -3.92444
   330   3    23.54666    -3.92444    -3.92444
   331   2   -23.54666     0.00000    -3.92444
   332   3   -19.62221     0.00000    -3.92444
   333   1   -15.69777     0.00000    -3.92444
   334   1   -11.77333     0.00000    -3.92444
   335   2    -7.84889     0.00000    -3.92444
   336   2    -3.92444     0.00000    -3.92444
   337   2     0.00000     0.00000    -3.92444
   338   2     3.92444     0.00000    -3.92444
   339   2     7.84889     0.00000    -3.92444
   340   1    11.77333     0.00000    -3.92444
   341   1    15.69777     0.00000    -3.92444
   342   2    19.62221     0.00000    -3.92444
   343   3    23.54666     0.00000    -3.92444
   344   1   -19.62221     3.92444    -3.92444
   345   2   -15.69777     3.92444    -3.92444
   346   1   -11.77333     3.92444    -3.92444
   347   2    -7.84889     3.92444    -3.92444
   348   1    -3.92444     3.92444    -3.92444
   349   2     0.00000     3.92444    -3.92444
   350   1     3.92444     3.92444    -3.92444
   351   2     7.84889     3.92444    -3.92444
   352   2    11.77333     3.92444    -3.92444
   353   2    15.69777     3.92444    -3.92444
   354   1   -19.62221     7.84889    -3.92444
   355   2   -15.69777     7.84889    -3.92444
   356   2   -11.77333     7.84889    -3.92444
   357   2    -7.84889     7.84889    -3.92444
   358   1    -3.92444     7.84889    -3.92444
   359   2     0.00000     7.84889    -3.92444
   360   1     3.92444     7.84889    -3.92444
   361   1     7.84889     7.84889    -3.92444
   362   1    11.77333     7.84889    -3.92444
   363   2    15.69777     7.84889    -3.92444
   364   1    19.62221     7.84889    -3.92444
   365   2   -15.69777    11.77333    -3.92444
   366   2   -11.77333    11.77333    -3.92444
   367   1    -7.84889    11.77333    -3.92444
   368   2    -3.92444    11.77333    -3.92444
   369   2     0.00000    11.77333    -3.92444
   370   2     3.92444    11.77333    -3.92444
   371   1     7.84889    11.77333    -3.92444
   372   2    11.77333    11.77333    -3.92444
   373   3    15.69777    11.77333    -3.92444
   374   3    19.62221    11.77333    -3.92444
   375   3   -15.69777    15.69777    -3.92444
   376   1   -11.77333    15.69777    -3.92444
   377   2    -7.84889    15.69777    -3.92444
   378   2    -3.92444    15.69777    -3.92444
   379   2     0.00000    15.69777    -3.92444
   380   1     3.92444    15.69777    -3.92444
   381   3     7.84889    15.69777    -3.92444
   382   3    11.77333    15.69777    -3.92444
   383   1    -7.84889    19.62221    -3.92444
   384   3    -3.92444    19.62221    -3.92444
   385   3     0.00000    19.62221    -3.92444
   386   3     3.92444    19.62221    -3.92444
   387   3     7.84889    19.62221    -3.92444
   388   1    11.77333    19.62221    -3.92444
   389   3     0.00000    23.54666    -3.92444
   390   3     3.92444    23.54666    -3.92444
   391   3    -7.84889   -23.54666     0.00000
   392   3     0.00000   -23.54666     0.00000
   393   3    -7.84889   -19.62221     0.00000
   394   3    -3.92444   -19.62221     0.00000
   395   3     0.00000   -19.62221     0.00000
   396   2     3.92444   -19.62221     0.00000
   397   3     7.84889   -19.62221     0.00000
   398   3    11.77333   -19.62221     0.00000
   399   3   -15.69777   -15.69777     0.00000
   400   1   -11.77333   -15.69777     0.00000
   401   1    -7.84889   -15.69777     0.00000
   402   1    -3.92444   -15.69777     0.00000
   403   3     0.00000   -15.69777     0.00000
   404   2     3.92444   -15.69777     0.00000
   405   2     7.84889   -15.69777     0.00000
   406   3    11.77333   -15.69777     0.00000
   407   3    15.69777   -15.69777     0.00000
   408   1   -15.69777   -11.77333     0.00000
   409   3   -11.77333   -11.77333     0.00000
   410   3    -7.84889   -11.77333     0.00000
   411   2    -3.92444   -11.77333     0.00000
   412   2     0.00000   -11.77333     0.00000
   413   2     3.92444   -11.77333     0.00000
   414   2     7.84889   -11.77333     0.00000
   415   2    11.77333   -11.77333     0.00000
   416   2    15.69777   -11.77333     0.00000
   417   3   -19.62221    -7.84889     0.00000
   418   3   -15.69777    -7.84889     0.00000
   419   2   -11.77333    -7.84889     0.00000
   420   2    -7.84889    -7.84889     0.00000
   421   2    -3.92444    -7.84889     0.00000
   422   2     0.00000    -7.84889     0.00000
   423   1     3.92444    -7.84889     0.00000
   424   2     7.84889    -7.84889     0.00000
   425   2    11.77333    -7.84889     0.00000
   426   2    15.69777    -7.84889     0.00000
   427   3    19.62221    -7.84889     0.00000
   428   3   -23.54666    -3.92444     0.00000
   429   2   -19.62221    -3.92444     0.00000
   430   2   -15.69777    -3.92444     0.00000
   431   2   -11.77333    -3.92444     0.00000
   432   2    -7.84889    -3.92444     0.00000
   433   2    -3.92444    -3.92444     0.00000
   434   2     0.00000    -3.92444     0.00000
   435   1     3.92444    -3.92444     0.00000
   436   1     7.84889    -3.92444     0.00000
   437   1    11.77333    -3.92444     0.00000
   438   2    15.69777    -3.92444     0.00000
   439   2    19.62221    -3.92444     0.00000
   440   2    23.54666    -3.92444     0.00000
   441   2   -19.62221     0.00000     0.00000
   442   1   -15.69777     0.00000     0.00000
   443   2   -11.77333     0.00000     0.00000
   444   1    -7.84889     0.00000     0.00000
   445   2    -3.92444     0.00000     0.00000
   446   1     0.00000     0.00000     0.00000
   447   1     3.92444     0.00000     0.00000
   448   2     7.84889     0.00000     0.00000
   449   3    11.77333     0.00000     0.00000
   450   2    15.69777     0.00000     0.00000
   451   2    19.62221     0.00000     0.00000
   452   3    23.54666     0.00000     0.00000
   453   3   -23.54666     3.92444     0.00000
   454   1   -19.62221     3.92444     0.00000
   455   1   -15.69777     3.92444     0.00000
   456   2   -11.77333     3.92444     0.00000
   457   1    -7.84889     3.92444     0.00000
   458   1    -3.92444     3.92444     0.00000
   459   2     0.00000     3.92444     0.00000
   460   2     3.92444     3.92444     0.00000
   461   2     7.84889     3.92444     0.00000
   462   2    11.77333     3.92444     0.00000
   463   1    15.69777     3.92444     0.00000
   464   1    19.62221     3.92444     0.00000
   465   3    23.54666     3.92444     0.00000
   466   2   -19.62221     7.84889     0.00000
   467   1   -15.69777     7.84889     0.00000
   468   1   -11.77333     7.84889     0.00000
   469   2    -7.84889     7.84889     0.00000
   470   2    -3.92444     7.84889     0.00000
   471   2     0.00000     7.84889     0.00000
   472   2     3.92444     7.84889     0.00000
   473   2     7.84889     7.84889     0.00000
   474   2    11.77333     7.84889     0.00000
   475   2    15.69777     7.84889     0.00000
   476   2    19.62221     7.84889     0.00000
   477   1   -15.69777    11.77333     0.00000
   478   1   -11.77333    11.77333     0.00000
   479   1    -7.84889    11.77333     0.00000
   480   1    -3.92444    11.77333     0.00000
   481   1     0.00000    11.77333     0.00000
   482   2     3.92444    11.77333     0.00000
   483   1     7.84889    11.77333     0.00000
   484   1    11.77333    11.77333     0.00000
   485   2    15.69777    11.77333     0.00000
   486   3    19.62221    11.77333     0.00000
   487   1   -15.69777    15.69777     0.00000
   488   2   -11.77333    15.69777     0.00000
   489   1    -7.84889    15.69777     0.00000
   490   2    -3.92444    15.69777     0.00000
   491   1     0.00000    15.69777     0.00000
   492   3     3.92444    15.69777     0.00000
   493   1     7.84889    15.69777     0.00000
   494   3    11.77333    15.69777     0.00000
   495   2    15.69777    15.69777     0.00000
   496   3    -7.84889    19.62221     0.00000
   497   1    -3.92444    19.62221     0.00000
   498   2     0.00000    19.62221     0.00000
   499   3     7.84889    19.62221     0.00000
   500   3    11.77333    19.62221     0.00000
   501   3     0.00000    23.54666     0.00000
   502   2    -3.92444   -23.54666     3.92444
   503   2     0.00000   -23.54666     3.92444
   504   3     3.92444   -23.54666     3.92444
   505   2   -11.77333   -19.62221     3.92444
   506   3    -3.92444   -19.62221     3.92444
   507   2     0.00000   -19.62221     3.92444
   508   2     3.92444   -19.62221     3.92444
   509   3     7.84889   -19.62221     3.92444
   510   3    11.77333   -19.62221     3.92444
   511   2   -15.69777   -15.69777     3.92444
   512   3   -11.77333   -15.69777     3.92444
   513   3    -7.84889   -15.69777     3.92444
   514   1    -3.92444   -15.69777     3.92444
   515   2     0.00000   -15.69777     3.92444
   516   2     3.92444   -15.69777     3.92444
   517   2     7.84889   -15.69777     3.92444
   518   2    11.77333   -15.69777     3.92444
   519   3   -19.62221   -11.77333     3.92444
   520   2   -15.69777   -11.77333     3.92444
   521   3   -11.77333   -11.77333     3.92444
   522   2    -7.84889   -11.77333     3.92444
   523   3    -3.92444   -11.77333     3.92444
   524   2     0.00000   -11.77333     3.92444
   525   2     3.92444   -11.77333     3.92444
   526   2     7.84889   -11.77333     3.92444
   527   2    11.77333   -11.77333     3.92444
   528   3    15.69777   -11.77333     3.92444
   529   3    19.62221   -11.77333     3.92444
   530   2   -19.62221    -7.84889     3.92444
   531   2   -15.69777    -7.84889     3.92444
   532   1   -11.77333    -7.84889     3.92444
   533   1    -7.84889    -7.84889     3.92444
   534   2    -3.92444    -7.84889     3.92444
   535   2     0.00000    -7.84889     3.92444
   536   2     3.92444    -7.84889     3.92444
   537   2     7.84889    -7.84889     3.92444
   538   2    11.77333    -7.84889     3.92444
   539   2    15.69777    -7.84889     3.92444
   540   2    19.62221    -7.84889     3.92444
   541   3   -23.54666    -3.92444     3.92444
   542   2   -19.62221    -3.92444     3.92444
   543   2   -15.69777    -3.92444     3.92444
   544   2   -11.77333    -3.92444     3.92444
   545   2    -7.84889    -3.92444     3.92444
   546   2    -3.92444    -3.92444     3.92444
   547   1     0.00000    -3.92444     3.92444
   548   1     3.92444    -3.92444     3.92444
   549   2     7.84889    -3.92444     3.92444
   550   2    11.77333    -3.92444     3.92444
   551   2    15.69777    -3.92444     3.92444
   552   2    19.62221    -3.92444     3.92444
   553   1   -19.62221     0.00000     3.92444
   554   2   -15.69777     0.00000     3.92444
   555   1   -11.77333     0.00000     3.92444
   556   3    -7.84889     0.00000     3.92444
   557   2    -3.92444     0.00000     3.92444
   558   3     0.00000     0.00000     3.92444
   559   2     3.92444     0.00000     3.92444
   560   2     7.84889     0.00000     3.92444
   561   2    11.77333     0.00000     3.92444
   562   1    15.69777     0.00000     3.92444
   563   1    19.62221     0.00000     3.92444
   564   3   -19.62221     3.92444     3.92444
   565   3   -15.69777     3.92444     3.92444
   566   2   -11.77333     3.92444     3.92444
   567   2    -7.84889     3.92444     3.92444
   568   1    -3.92444     3.92444     3.92444
   569   1     0.00000     3.92444     3.92444
   570   2     3.92444     3.92444     3.92444
   571   2     7.84889     3.92444     3.92444
   572   2    11.77333     3.92444     3.92444
   573   2    15.69777     3.92444     3.92444
   574   3   -19.62221     7.84889     3.92444
   575   2   -15.69777     7.84889     3.92444
   576   3   -11.77333     7.84889     3.92444
   577   2    -7.84889     7.84889     3.92444
   578   2    -3.92444     7.84889     3.92444
   579   2     0.00000     7.84889     3.92444
   580   2     3.92444     7.84889     3.92444
   581   1     7.84889     7.84889     3.92444
   582   1    11.77333     7.84889     3.92444
   583   2    15.69777     7.84889     3.92444
   584   2    19.62221     7.84889     3.92444
   585   1   -15.69777    11.77333     3.92444
   586   1   -11.77333    11.77333     3.92444
   587   1    -7.84889    11.77333     3.92444
   588   2    -3.92444    11.77333     3.92444
   589   1     0.00000    11.77333     3.92444
   590   1     3.92444    11.77333     3.92444
   591   2     7.84889    11.77333     3.92444
   592   3    11.77333    11.77333     3.92444
   593   2    15.69777    11.77333     3.92444
   594   2   -15.69777    15.69777     3.92444
   595   2   -11.77333    15.69777     3.92444
   596   2    -7.84889    15.69777     3.92444
   597   2    -3.92444    15.69777     3.92444
   598   1     0.00000    15.69777     3.92444
   599   1     3.92444    15.69777     3.92444
   600   3     7.84889    15.69777     3.92444
   601   2    11.77333    15.69777     3.92444
   602   3    15.69777    15.69777     3.92444
   603   1    -7.84889    19.62221     3.92444
   604   2    -3.92444    19.62221     3.92444
   605   3     0.00000    19.62221     3.92444
   606   1     3.92444    19.62221     3.92444
   607   2     7.84889    19.62221     3.92444
   608   3    11.77333    19.62221     3.92444
   609   3   -11.77333   -19.62221     7.84889
   610   3    -7.84889   -19.62221     7.84889
   611   1    -3.92444   -19.62221     7.84889
   612   3     0.00000   -19.62221     7.84889
   613   3     3.92444   -19.62221     7.84889
   614   1     7.84889   -19.62221     7.84889
   615   1   -11.77333   -15.69777     7.84889
   616   2    -7.84889   -15.69777     7.84889
   617   2    -3.92444   -15.69777     7.84889
   618   2     0.00000   -15.69777     7.84889
   619   3     7.84889   -15.69777     7.84889
   620   3    11.77333   -15.69777     7.84889
   621   3   -19.62221   -11.77333     7.84889
   622   1   -15.69777   -11.77333     7.84889
   623   2   -11.77333   -11.77333     7.84889
   624   2    -7.84889   -11.77333     7.84889
   625   2    -3.92444   -11.77333     7.84889
   626   1     0.00000   -11.77333     7.84889
   627   2     3.92444   -11.77333     7.84889
   628   2     7.84889   -11.77333     7.84889
   629   1    11.77333   -11.77333     7.84889
   630   3    15.69777   -11.77333     7.84889
   631   2   -15.69777    -7.84889     7.84889
   632   3   -11.77333    -7.84889     7.84889
   633   2    -7.84889    -7.84889     7.84889
   634   1    -3.92444    -7.84889     7.84889