LAMMPS DATA FOR MEAM SIMULATION

   3899   atoms
      3   atom types

  -33.55   33.55   xlo xhi
  -33.55   33.55   ylo yhi
  -33.55   33.55   zlo zhi

 Atoms

     1   3    -3.92444    -3.92444   -23.54666
     2   3     0.00000    -3.92444   -23.54666
     3   3    -3.92444     0.00000   -23.54666
     4   3     0.00000     0.00000   -23.54666
     5   1     3.92444     0.00000   -23.54666
     6   3    -3.92444     3.92444   -23.54666
     7   3     0.00000     3.92444   -23.54666
     8   3     3.92444     3.92444   -23.54666
     9   2    -7.84889   -11.77333   -19.62221
    10   3    -3.92444   -11.77333   -19.62221
    11   3     0.00000   -11.77333   -19.62221
    12   3     3.92444   -11.77333   -19.62221
    13   2     7.84889   -11.77333   -19.62221
    14   2   -11.77333    -7.84889   -19.62221
    15   3    -7.84889    -7.84889   -19.62221
    16   2    -3.92444    -7.84889   -19.62221
    17   3     0.00000    -7.84889   -19.62221
    18   2     3.92444    -7.84889   -19.62221
    19   2     7.84889    -7.84889   -19.62221
    20   3    11.77333    -7.84889   -19.62221
    21   3   -11.77333    -3.92444   -19.62221
    22   2    -7.84889    -3.92444   -19.62221
    23   1    -3.92444    -3.92444   -19.62221
    24   3     0.00000    -3.92444   -19.62221
    25   2     3.92444    -3.92444   -19.62221
    26   2     7.84889    -3.92444   -19.62221
    27   3    11.77333    -3.92444   -19.62221
    28   1   -11.77333     0.00000   -19.62221
    29   3    -7.84889     0.00000   -19.62221
    30   2    -3.92444     0.00000   -19.62221
    31   2     0.00000     0.00000   -19.62221
    32   2     3.92444     0.00000   -19.62221
    33   2     7.84889     0.00000   -19.62221
    34   2    11.77333     0.00000   -19.62221
    35   1   -11.77333     3.92444   -19.62221
    36   2    -7.84889     3.92444   -19.62221
    37   2    -3.92444     3.92444   -19.62221
    38   3     0.00000     3.92444   -19.62221
    39   2     3.92444     3.92444   -19.62221
    40   2     7.84889     3.92444   -19.62221
    41   3    11.77333     3.92444   -19.62221
    42   1   -11.77333     7.84889   -19.62221
    43   2    -7.84889     7.84889   -19.62221
    44   3    -3.92444     7.84889   -19.62221
    45   2     0.00000     7.84889   -19.62221
    46   2     3.92444     7.84889   -19.62221
    47   3    11.77333     7.84889   -19.62221
    48   2    -7.84889    11.77333   -19.62221
    49   3    -3.92444    11.77333   -19.62221
    50   3     3.92444    11.77333   -19.62221
    51   2     7.84889    11.77333   -19.62221
    52   3    -7.84889   -15.69777   -15.69777
    53   1    -3.92444   -15.69777   -15.69777
    54   3     0.00000   -15.69777   -15.69777
    55   2     3.92444   -15.69777   -15.69777
    56   3     7.84889   -15.69777   -15.69777
    57   1    -7.84889   -11.77333   -15.69777
    58   2    -3.92444   -11.77333   -15.69777
    59   3     0.00000   -11.77333   -15.69777
    60   3     3.92444   -11.77333   -15.69777
    61   3     7.84889   -11.77333   -15.69777
    62   3    11.77333   -11.77333   -15.69777
    63   1   -15.69777    -7.84889   -15.69777
    64   1   -11.77333    -7.84889   -15.69777
    65   3    -7.84889    -7.84889   -15.69777
    66   2    -3.92444    -7.84889   -15.69777
    67   1     0.00000    -7.84889   -15.69777
    68   2     3.92444    -7.84889   -15.69777
    69   3     7.84889    -7.84889   -15.69777
    70   3    11.77333    -7.84889   -15.69777
    71   3    15.69777    -7.84889   -15.69777
    72   3   -15.69777    -3.92444   -15.69777
    73   2   -11.77333    -3.92444   -15.69777
    74   3    -7.84889    -3.92444   -15.69777
    75   2    -3.92444    -3.92444   -15.69777
    76   3     0.00000    -3.92444   -15.69777
    77   2     3.92444    -3.92444   -15.69777
    78   1     7.84889    -3.92444   -15.69777
    79   1    11.77333    -3.92444   -15.69777
    80   3    15.69777    -3.92444   -15.69777
    81   1   -15.69777     0.00000   -15.69777
    82   3   -11.77333     0.00000   -15.69777
    83   1    -7.84889     0.00000   -15.69777
    84   2    -3.92444     0.00000   -15.69777
    85   1     0.00000     0.00000   -15.69777
    86   2     3.92444     0.00000   -15.69777
    87   1     7.84889     0.00000   -15.69777
    88   3    11.77333     0.00000   -15.69777
    89   3    15.69777     0.00000   -15.69777
    90   3   -15.69777     3.92444   -15.69777
    91   2   -11.77333     3.92444   -15.69777
    92   2    -7.84889     3.92444   -15.69777
    93   3    -3.92444     3.92444   -15.69777
    94   2     0.00000     3.92444   -15.69777
    95   2     3.92444     3.92444   -15.69777
    96   2     7.84889     3.92444   -15.69777
    97   1    11.77333     3.92444   -15.69777
    98   2    15.69777     3.92444   -15.69777
    99   3   -15.69777     7.84889   -15.69777
   100   2   -11.77333     7.84889   -15.69777
   101   2    -7.84889     7.84889   -15.69777
   102   3    -3.92444     7.84889   -15.69777
   103   2     0.00000     7.84889   -15.69777
   104   1     3.92444     7.84889   -15.69777
   105   1     7.84889     7.84889   -15.69777
   106   1    11.77333     7.84889   -15.69777
   107   2   -11.77333    11.77333   -15.69777
   108   2    -7.84889    11.77333   -15.69777
   109   3    -3.92444    11.77333   -15.69777
   110   2     0.00000    11.77333   -15.69777
   111   1     3.92444    11.77333   -15.69777
   112   1     7.84889    11.77333   -15.69777
   113   2    11.77333    11.77333   -15.69777
   114   3    -3.92444    15.69777   -15.69777
   115   3     0.00000    15.69777   -15.69777
   116   3     3.92444    15.69777   -15.69777
   117   3     7.84889    15.69777   -15.69777
   118   3    -7.84889   -19.62221   -11.77333
   119   1    -3.92444   -19.62221   -11.77333
   120   3     0.00000   -19.62221   -11.77333
   121   1     3.92444   -19.62221   -11.77333
   122   2   -11.77333   -15.69777   -11.77333
   123   2    -7.84889   -15.69777   -11.77333
   124   2    -3.92444   -15.69777   -11.77333
   125   2     0.00000   -15.69777   -11.77333
   126   2     3.92444   -15.69777   -11.77333
   127   2     7.84889   -15.69777   -11.77333
   128   3    11.77333   -15.69777   -11.77333
   129   3   -15.69777   -11.77333   -11.77333
   130   2   -11.77333   -11.77333   -11.77333
   131   2    -7.84889   -11.77333   -11.77333
   132   1    -3.92444   -11.77333   -11.77333
   133   2     0.00000   -11.77333   -11.77333
   134   2     3.92444   -11.77333   -11.77333
   135   2     7.84889   -11.77333   -11.77333
   136   3    11.77333   -11.77333   -11.77333
   137   2    15.69777   -11.77333   -11.77333
   138   3   -19.62221    -7.84889   -11.77333
   139   3   -15.69777    -7.84889   -11.77333
   140   1   -11.77333    -7.84889   -11.77333
   141   2    -7.84889    -7.84889   -11.77333
   142   3    -3.92444    -7.84889   -11.77333
   143   2     0.00000    -7.84889   -11.77333
   144   1     3.92444    -7.84889   -11.77333
   145   1     7.84889    -7.84889   -11.77333
   146   2    11.77333    -7.84889   -11.77333
   147   1    15.69777    -7.84889   -11.77333
   148   3    19.62221    -7.84889   -11.77333
   149   3   -19.62221    -3.92444   -11.77333
   150   2   -15.69777    -3.92444   -11.77333
   151   3   -11.77333    -3.92444   -11.77333
   152   1    -7.84889    -3.92444   -11.77333
   153   2    -3.92444    -3.92444   -11.77333
   154   2     0.00000    -3.92444   -11.77333
   155   1     3.92444    -3.92444   -11.77333
   156   1     7.84889    -3.92444   -11.77333
   157   2    11.77333    -3.92444   -11.77333
   158   1    15.69777    -3.92444   -11.77333
   159   3    19.62221    -3.92444   -11.77333
   160   3   -19.62221     0.00000   -11.77333
   161   3   -15.69777     0.00000   -11.77333
   162   1   -11.77333     0.00000   -11.77333
   163   2    -7.84889     0.00000   -11.77333
   164   2    -3.92444     0.00000   -11.77333
   165   1     0.00000     0.00000   -11.77333
   166   1     3.92444     0.00000   -11.77333
   167   1     7.84889     0.00000   -11.77333
   168   1    11.77333     0.00000   -11.77333
   169   1    15.69777     0.00000   -11.77333
   170   3    19.62221     0.00000   -11.77333
   171   3   -19.62221     3.92444   -11.77333
   172   1   -15.69777     3.92444   -11.77333
   173   2   -11.77333     3.92444   -11.77333
   174   2    -7.84889     3.92444   -11.77333
   175   3    -3.92444     3.92444   -11.77333
   176   2     0.00000     3.92444   -11.77333
   177   2     3.92444     3.92444   -11.77333
   178   1     7.84889     3.92444   -11.77333
   179   2    11.77333     3.92444   -11.77333
   180   3    15.69777     3.92444   -11.77333
   181   2    19.62221     3.92444   -11.77333
   182   2   -15.69777     7.84889   -11.77333
   183   3   -11.77333     7.84889   -11.77333
   184   1    -7.84889     7.84889   -11.77333
   185   1    -3.92444     7.84889   -11.77333
   186   1     0.00000     7.84889   -11.77333
   187   2     3.92444     7.84889   -11.77333
   188   2     7.84889     7.84889   -11.77333
   189   2    11.77333     7.84889   -11.77333
   190   2    15.69777     7.84889   -11.77333
   191   3    19.62221     7.84889   -11.77333
   192   1   -15.69777    11.77333   -11.77333
   193   1   -11.77333    11.77333   -11.77333
   194   1    -7.84889    11.77333   -11.77333
   195   2    -3.92444    11.77333   -11.77333
   196   1     0.00000    11.77333   -11.77333
   197   1     3.92444    11.77333   -11.77333
   198   1     7.84889    11.77333   -11.77333
   199   2    11.77333    11.77333   -11.77333
   200   2    15.69777    11.77333   -11.77333
   201   2   -11.77333    15.69777   -11.77333
   202   2    -7.84889    15.69777   -11.77333
   203   2    -3.92444    15.69777   -11.77333
   204   1     0.00000    15.69777   -11.77333
   205   1     3.92444    15.69777   -11.77333
   206   2     7.84889    15.69777   -11.77333
   207   3    -3.92444    19.62221   -11.77333
   208   3     0.00000    19.62221   -11.77333
   209   3     3.92444    19.62221   -11.77333
   210   1    -7.84889   -19.62221    -7.84889
   211   3    -3.92444   -19.62221    -7.84889
   212   1     0.00000   -19.62221    -7.84889
   213   2     3.92444   -19.62221    -7.84889
   214   3     7.84889   -19.62221    -7.84889
   215   2   -15.69777   -15.69777    -7.84889
   216   2   -11.77333   -15.69777    -7.84889
   217   2    -7.84889   -15.69777    -7.84889
   218   2    -3.92444   -15.69777    -7.84889
   219   2     0.00000   -15.69777    -7.84889
   220   2     3.92444   -15.69777    -7.84889
   221   3     7.84889   -15.69777    -7.84889
   222   3    11.77333   -15.69777    -7.84889
   223   3    15.69777   -15.69777    -7.84889
   224   3   -19.62221   -11.77333    -7.84889
   225   2   -15.69777   -11.77333    -7.84889
   226   2   -11.77333   -11.77333    -7.84889
   227   2    -7.84889   -11.77333    -7.84889
   228   2    -3.92444   -11.77333    -7.84889
   229   1     0.00000   -11.77333    -7.84889
   230   1     3.92444   -11.77333    -7.84889
   231   2     7.84889   -11.77333    -7.84889
   232   2    11.77333   -11.77333    -7.84889
   233   3    15.69777   -11.77333    -7.84889
   234   3    19.62221   -11.77333    -7.84889
   235   3   -19.62221    -7.84889    -7.84889
   236   2   -15.69777    -7.84889    -7.84889
   237   2   -11.77333    -7.84889    -7.84889
   238   2    -7.84889    -7.84889    -7.84889
   239   2    -3.92444    -7.84889    -7.84889
   240   1     0.00000    -7.84889    -7.84889
   241   1     3.92444    -7.84889    -7.84889
   242   3     7.84889    -7.84889    -7.84889
   243   2    11.77333    -7.84889    -7.84889
   244   3    15.69777    -7.84889    -7.84889
   245   2    19.62221    -7.84889    -7.84889
   246   3   -19.62221    -3.92444    -7.84889
   247   2   -15.69777    -3.92444    -7.84889
   248   2   -11.77333    -3.92444    -7.84889
   249   1    -7.84889    -3.92444    -7.84889
   250   1    -3.92444    -3.92444    -7.84889
   251   2     0.00000    -3.92444    -7.84889
   252   1     3.92444    -3.92444    -7.84889
   253   2     7.84889    -3.92444    -7.84889
   254   1    11.77333    -3.92444    -7.84889
   255   2    15.69777    -3.92444    -7.84889
   256   2    19.62221    -3.92444    -7.84889
   257   3   -19.62221     0.00000    -7.84889
   258   1   -15.69777     0.00000    -7.84889
   259   2   -11.77333     0.00000    -7.84889
   260   1    -7.84889     0.00000    -7.84889
   261   2    -3.92444     0.00000    -7.84889
   262   1     0.00000     0.00000    -7.84889
   263   1     3.92444     0.00000    -7.84889
   264   1     7.84889     0.00000    -7.84889
   265   1    11.77333     0.00000    -7.84889
   266   1    15.69777     0.00000    -7.84889
   267   3    19.62221     0.00000    -7.84889
   268   3   -19.62221     3.92444    -7.84889
   269   1   -15.69777     3.92444    -7.84889
   270   2   -11.77333     3.92444    -7.84889
   271   1    -7.84889     3.92444    -7.84889
   272   1    -3.92444     3.92444    -7.84889
   273   2     0.00000     3.92444    -7.84889
   274   1     3.92444     3.92444    -7.84889
   275   2     7.84889     3.92444    -7.84889
   276   2    11.77333     3.92444    -7.84889
   277   3    15.69777     3.92444    -7.84889
   278   2    19.62221     3.92444    -7.84889
   279   1   -19.62221     7.84889    -7.84889
   280   2   -15.69777     7.84889    -7.84889
   281   2   -11.77333     7.84889    -7.84889
   282   1    -7.84889     7.84889    -7.84889
   283   2    -3.92444     7.84889    -7.84889
   284   1     0.00000     7.84889    -7.84889
   285   1     3.92444     7.84889    -7.84889
   286   2     7.84889     7.84889    -7.84889
   287   1    11.77333     7.84889    -7.84889
   288   2    15.69777     7.84889    -7.84889
   289   3    19.62221     7.84889    -7.84889
   290   3   -19.62221    11.77333    -7.84889
   291   3   -15.69777    11.77333    -7.84889
   292   2   -11.77333    11.77333    -7.84889
   293   2    -7.84889    11.77333    -7.84889
   294   2    -3.92444    11.77333    -7.84889
   295   2     0.00000    11.77333    -7.84889
   296   1     3.92444    11.77333    -7.84889
   297   2     7.84889    11.77333    -7.84889
   298   2    11.77333    11.77333    -7.84889
   299   3    15.69777    11.77333    -7.84889
   300   1    19.62221    11.77333    -7.84889
   301   3   -15.69777    15.69777    -7.84889
   302   2    -7.84889    15.69777    -7.84889
   303   1    -3.92444    15.69777    -7.84889
   304   2     0.00000    15.69777    -7.84889
   305   1     3.92444    15.69777    -7.84889
   306   1     7.84889    15.69777    -7.84889
   307   3    11.77333    15.69777    -7.84889
   308   3    15.69777    15.69777    -7.84889
   309   3    -7.84889    19.62221    -7.84889
   310   1    -3.92444    19.62221    -7.84889
   311   1     0.00000    19.62221    -7.84889
   312   2     3.92444    19.62221    -7.84889
   313   1     7.84889    19.62221    -7.84889
   314   2     0.00000    23.54666    -7.84889
   315   3    -3.92444   -23.54666    -3.92444
   316   3     0.00000   -23.54666    -3.92444
   317   3    -7.84889   -19.62221    -3.92444
   318   2    -3.92444   -19.62221    -3.92444
   319   2     0.00000   -19.62221    -3.92444
   320   2     3.92444   -19.62221    -3.92444
   321   3     7.84889   -19.62221    -3.92444
   322   1    11.77333   -19.62221    -3.92444
   323   2   -15.69777   -15.69777    -3.92444
   324   1   -11.77333   -15.69777    -3.92444
   325   2    -7.84889   -15.69777    -3.92444
   326   2    -3.92444   -15.69777    -3.92444
   327   1     0.00000   -15.69777    -3.92444
   328   1     3.92444   -15.69777    -3.92444
   329   1     7.84889   -15.69777    -3.92444
   330   3    11.77333   -15.69777    -3.92444
   331   1    15.69777   -15.69777    -3.92444
   332   2   -19.62221   -11.77333    -3.92444
   333   1   -15.69777   -11.77333    -3.92444
   334   1   -11.77333   -11.77333    -3.92444
   335   1    -7.84889   -11.77333    -3.92444
   336   1    -3.92444   -11.77333    -3.92444
   337   3     0.00000   -11.77333    -3.92444
   338   1     3.92444   -11.77333    -3.92444
   339   1     7.84889   -11.77333    -3.92444
   340   2    11.77333   -11.77333    -3.92444
   341   2    15.69777   -11.77333    -3.92444
   342   2   -19.62221    -7.84889    -3.92444
   343   2   -15.69777    -7.84889    -3.92444
   344   2   -11.77333    -7.84889    -3.92444
   345   1    -7.84889    -7.84889    -3.92444
   346   2    -3.92444    -7.84889    -3.92444
   347   1     0.00000    -7.84889    -3.92444
   348   2     3.92444    -7.84889    -3.92444
   349   1     7.84889    -7.84889    -3.92444
   350   2    11.77333    -7.84889    -3.92444
   351   3    15.69777    -7.84889    -3.92444
   352   3    19.62221    -7.84889    -3.92444
   353   3   -23.54666    -3.92444    -3.92444
   354   3   -19.62221    -3.92444    -3.92444
   355   1   -15.69777    -3.92444    -3.92444
   356   1   -11.77333    -3.92444    -3.92444
   357   1    -7.84889    -3.92444    -3.92444
   358   1    -3.92444    -3.92444    -3.92444
   359   2     0.00000    -3.92444    -3.92444
   360   1     3.92444    -3.92444    -3.92444
   361   1     7.84889    -3.92444    -3.92444
   362   1    11.77333    -3.92444    -3.92444
   363   1    15.69777    -3.92444    -3.92444
   364   3    19.62221    -3.92444    -3.92444
   365   3    23.54666    -3.92444    -3.92444
   366   1   -23.54666     0.00000    -3.92444
   367   3   -19.62221     0.00000    -3.92444
   368   2   -15.69777     0.00000    -3.92444
   369   1   -11.77333     0.00000    -3.92444
   370   1    -7.84889     0.00000    -3.92444
   371   1    -3.92444     0.00000    -3.92444
   372   1     0.00000     0.00000    -3.92444
   373   2     3.92444     0.00000    -3.92444
   374   2     7.84889     0.00000    -3.92444
   375   2    11.77333     0.00000    -3.92444
   376   2    15.69777     0.00000    -3.92444
   377   3    19.62221     0.00000    -3.92444
   378   3    23.54666     0.00000    -3.92444
   379   2   -19.62221     3.92444    -3.92444
   380   1   -15.69777     3.92444    -3.92444
   381   2   -11.77333     3.92444    -3.92444
   382   2    -7.84889     3.92444    -3.92444
   383   1    -3.92444     3.92444    -3.92444
   384   2     0.00000     3.92444    -3.92444
   385   1     3.92444     3.92444    -3.92444
   386   2     7.84889     3.92444    -3.92444
   387   2    11.77333     3.92444    -3.92444
   388   2    15.69777     3.92444    -3.92444
   389   2    19.62221     3.92444    -3.92444
   390   3    23.54666     3.92444    -3.92444
   391   1   -19.62221     7.84889    -3.92444
   392   1   -15.69777     7.84889    -3.92444
   393   2   -11.77333     7.84889    -3.92444
   394   2    -7.84889     7.84889    -3.92444
   395   2    -3.92444     7.84889    -3.92444
   396   2     0.00000     7.84889    -3.92444
   397   2     3.92444     7.84889    -3.92444
   398   2     7.84889     7.84889    -3.92444
   399   2    11.77333     7.84889    -3.92444
   400   2    15.69777     7.84889    -3.92444
   401   1    19.62221     7.84889    -3.92444
   402   3   -19.62221    11.77333    -3.92444
   403   3   -15.69777    11.77333    -3.92444
   404   2   -11.77333    11.77333    -3.92444
   405   2    -7.84889    11.77333    -3.92444
   406   1    -3.92444    11.77333    -3.92444
   407   3     0.00000    11.77333    -3.92444
   408   2     3.92444    11.77333    -3.92444
   409   2     7.84889    11.77333    -3.92444
   410   2    11.77333    11.77333    -3.92444
   411   2    15.69777    11.77333    -3.92444
   412   2    19.62221    11.77333    -3.92444
   413   2   -15.69777    15.69777    -3.92444
   414   3   -11.77333    15.69777    -3.92444
   415   3    -7.84889    15.69777    -3.92444
   416   2    -3.92444    15.69777    -3.92444
   417   2     0.00000    15.69777    -3.92444
   418   1     3.92444    15.69777    -3.92444
   419   1     7.84889    15.69777    -3.92444
   420   3    11.77333    15.69777    -3.92444
   421   1    15.69777    15.69777    -3.92444
   422   2   -11.77333    19.62221    -3.92444
   423   2    -7.84889    19.62221    -3.92444
   424   1    -3.92444    19.62221    -3.92444
   425   2     0.00000    19.62221    -3.92444
   426   2     3.92444    19.62221    -3.92444
   427   3     7.84889    19.62221    -3.92444
   428   1    -3.92444    23.54666    -3.92444
   429   1     0.00000    23.54666    -3.92444
   430   3     3.92444    23.54666    -3.92444
   431   3    -3.92444   -23.54666     0.00000
   432   3     0.00000   -23.54666     0.00000
   433   3   -11.77333   -19.62221     0.00000
   434   2    -7.84889   -19.62221     0.00000
   435   3    -3.92444   -19.62221     0.00000
   436   3     0.00000   -19.62221     0.00000
   437   2     3.92444   -19.62221     0.00000
   438   2     7.84889   -19.62221     0.00000
   439   1    11.77333   -19.62221     0.00000
   440   3   -15.69777   -15.69777     0.00000
   441   2   -11.77333   -15.69777     0.00000
   442   3    -7.84889   -15.69777     0.00000
   443   2    -3.92444   -15.69777     0.00000
   444   2     0.00000   -15.69777     0.00000
   445   3     3.92444   -15.69777     0.00000
   446   3     7.84889   -15.69777     0.00000
   447   2    11.77333   -15.69777     0.00000
   448   2    15.69777   -15.69777     0.00000
   449   1   -19.62221   -11.77333     0.00000
   450   1   -15.69777   -11.77333     0.00000
   451   2   -11.77333   -11.77333     0.00000
   452   1    -7.84889   -11.77333     0.00000
   453   2    -3.92444   -11.77333     0.00000
   454   3     0.00000   -11.77333     0.00000
   455   1     3.92444   -11.77333     0.00000
   456   2     7.84889   -11.77333     0.00000
   457   3    11.77333   -11.77333     0.00000
   458   2    15.69777   -11.77333     0.00000
   459   2   -23.54666    -7.84889     0.00000
   460   3   -19.62221    -7.84889     0.00000
   461   1   -15.69777    -7.84889     0.00000
   462   1   -11.77333    -7.84889     0.00000
   463   2    -7.84889    -7.84889     0.00000
   464   2    -3.92444    -7.84889     0.00000
   465   1     0.00000    -7.84889     0.00000
   466   2     3.92444    -7.84889     0.00000
   467   2     7.84889    -7.84889     0.00000
   468   1    11.77333    -7.84889     0.00000
   469   2    15.69777    -7.84889     0.00000
   470   2    19.62221    -7.84889     0.00000
   471   2   -19.62221    -3.92444     0.00000
   472   2   -15.69777    -3.92444     0.00000
   473   1   -11.77333    -3.92444     0.00000
   474   2    -7.84889    -3.92444     0.00000
   475   1    -3.92444    -3.92444     0.00000
   476   2     0.00000    -3.92444     0.00000
   477   1     3.92444    -3.92444     0.00000
   478   2     7.84889    -3.92444     0.00000
   479   2    11.77333    -3.92444     0.00000
   480   3    15.69777    -3.92444     0.00000
   481   1    19.62221    -3.92444     0.00000
   482   2   -23.54666     0.00000     0.00000
   483   2   -19.62221     0.00000     0.00000
   484   2   -15.69777     0.00000     0.00000
   485   2   -11.77333     0.00000     0.00000
   486   2    -7.84889     0.00000     0.00000
   487   1    -3.92444     0.00000     0.00000
   488   2     0.00000     0.00000     0.00000
   489   2     3.92444     0.00000     0.00000
   490   1     7.84889     0.00000     0.00000
   491   1    11.77333     0.00000     0.00000
   492   1    15.69777     0.00000     0.00000
   493   1    19.62221     0.00000     0.00000
   494   3    23.54666     0.00000     0.00000
   495   3   -23.54666     3.92444     0.00000
   496   3   -19.62221     3.92444     0.00000
   497   1   -15.69777     3.92444     0.00000
   498   1   -11.77333     3.92444     0.00000
   499   2    -7.84889     3.92444     0.00000
   500   2    -3.92444     3.92444     0.00000
   501   2     0.00000     3.92444     0.00000
   502   1     3.92444     3.92444     0.00000
   503   2     7.84889     3.92444     0.00000
   504   2    11.77333     3.92444     0.00000
   505   1    15.69777     3.92444     0.00000
   506   2    19.62221     3.92444     0.00000
   507   2   -19.62221     7.84889     0.00000
   508   2   -15.69777     7.84889     0.00000
   509   1   -11.77333     7.84889     0.00000
   510   2    -7.84889     7.84889     0.00000
   511   3    -3.92444     7.84889     0.00000
   512   2     0.00000     7.84889     0.00000
   513   1     3.92444     7.84889     0.00000
   514   1     7.84889     7.84889     0.00000
   515   2    11.77333     7.84889     0.00000
   516   2    15.69777     7.84889     0.00000
   517   1    19.62221     7.84889     0.00000
   518   2   -19.62221    11.77333     0.00000
   519   2   -15.69777    11.77333     0.00000
   520   2   -11.77333    11.77333     0.00000
   521   2    -7.84889    11.77333     0.00000
   522   1    -3.92444    11.77333     0.00000
   523   2     0.00000    11.77333     0.00000
   524   1     3.92444    11.77333     0.00000
   525   2     7.84889    11.77333     0.00000
   526   3    11.77333    11.77333     0.00000
   527   3    15.69777    11.77333     0.00000
   528   3    19.62221    11.77333     0.00000
   529   3   -15.69777    15.69777     0.00000
   530   1   -11.77333    15.69777     0.00000
   531   3    -7.84889    15.69777     0.00000
   532   1    -3.92444    15.69777     0.00000
   533   1     0.00000    15.69777     0.00000
   534   2     3.92444    15.69777     0.00000
   535   1     7.84889    15.69777     0.00000
   536   3    11.77333    15.69777     0.00000
   537   2    15.69777    15.69777     0.00000
   538   1   -11.77333    19.62221     0.00000
   539   2    -7.84889    19.62221     0.00000
   540   3    -3.92444    19.62221     0.00000
   541   1     0.00000    19.62221     0.00000
   542   3     3.92444    19.62221     0.00000
   543   1     7.84889    19.62221     0.00000
   544   3    -7.84889    23.54666     0.00000
   545   3    -3.92444    23.54666     0.00000
   546   3     0.00000    23.54666     0.00000
   547   3     3.92444    23.54666     0.00000
   548   3     3.92444   -23.54666     3.92444
   549   3   -11.77333   -19.62221     3.92444
   550   3    -7.84889   -19.62221     3.92444
   551   2    -3.92444   -19.62221     3.92444
   552   2     0.00000   -19.62221     3.92444
   553   1     3.92444   -19.62221     3.92444
   554   1     7.84889   -19.62221     3.92444
   555   2    11.77333   -19.62221     3.92444
   556   2   -15.69777   -15.69777     3.92444
   557   1   -11.77333   -15.69777     3.92444
   558   2    -7.84889   -15.69777     3.92444
   559   2    -3.92444   -15.69777     3.92444
   560   2     0.00000   -15.69777     3.92444
   561   1     3.92444   -15.69777     3.92444
   562   2     7.84889   -15.69777     3.92444
   563   2    11.77333   -15.69777     3.92444
   564   3    15.69777   -15.69777     3.92444
   565   3   -19.62221   -11.77333     3.92444
   566   2   -15.69777   -11.77333     3.92444
   567   2   -11.77333   -11.77333     3.92444
   568   3    -7.84889   -11.77333     3.92444
   569   2    -3.92444   -11.77333     3.92444
   570   2     0.00000   -11.77333     3.92444
   571   2     3.92444   -11.77333     3.92444
   572   2     7.84889   -11.77333     3.92444
   573   2    11.77333   -11.77333     3.92444
   574   3    15.69777   -11.77333     3.92444
   575   2    19.62221   -11.77333     3.92444
   576   3   -19.62221    -7.84889     3.92444
   577   1   -15.69777    -7.84889     3.92444
   578   1   -11.77333    -7.84889     3.92444
   579   1    -7.84889    -7.84889     3.92444
   580   2    -3.92444    -7.84889     3.92444
   581   2     0.00000    -7.84889     3.92444
   582   2     3.92444    -7.84889     3.92444
   583   2     7.84889    -7.84889     3.92444
   584   1    11.77333    -7.84889     3.92444
   585   2    15.69777    -7.84889     3.92444
   586   2    19.62221    -7.84889     3.92444
   587   3   -23.54666    -3.92444     3.92444
   588   2   -19.62221    -3.92444     3.92444
   589   2   -15.69777    -3.92444     3.92444
   590   2   -11.77333    -3.92444     3.92444
   591   2    -7.84889    -3.92444     3.92444
   592   2    -3.92444    -3.92444     3.92444
   593   2     0.00000    -3.92444     3.92444
   594   1     3.92444    -3.92444     3.92444
   595   2     7.84889    -3.92444     3.92444
   596   1    11.77333    -3.92444     3.92444
   597   3    15.69777    -3.92444     3.92444
   598   1    19.62221    -3.92444     3.92444
   599   2    23.54666    -3.92444     3.92444
   600   2   -19.62221     0.00000     3.92444
   601   1   -15.69777     0.00000     3.92444
   602   1   -11.77333     0.00000     3.92444
   603   2    -7.84889     0.00000     3.92444
   604   1    -3.92444     0.00000     3.92444
   605   3     0.00000     0.00000     3.92444
   606   2     3.92444     0.00000     3.92444
   607   2     7.84889     0.00000     3.92444
   608   2    11.77333     0.00000     3.92444
   609   2    15.69777     0.00000     3.92444
   610   1    19.62221     0.00000     3.92444
   611   3    23.54666     0.00000     3.92444
   612   3   -23.54666     3.92444     3.92444
   613   3   -19.62221     3.92444     3.92444
   614   2   -15.69777     3.92444     3.92444
   615   1   -11.77333     3.92444     3.92444
   616   2    -7.84889     3.92444     3.92444
   617   2    -3.92444     3.92444     3.92444
   618   2     0.00000     3.92444     3.92444
   619   2     3.92444     3.92444     3.92444
   620   2     7.84889     3.92444     3.92444
   621   1    11.77333     3.92444     3.92444
   622   1    15.69777     3.92444     3.92444
   623   3    19.62221     3.92444     3.92444
   624   2   -19.62221     7.84889     3.92444
   625   1   -15.69777     7.84889     3.92444
   626   1   -11.77333     7.84889     3.92444
   627   1    -7.84889     7.84889     3.92444
   628   2    -3.92444     7.84889     3.92444
   629   2     0.00000     7.84889     3.92444
   630   2     3.92444     7.84889     3.92444
   631   3     7.84889     7.84889     3.92444
   632   3    11.77333     7.84889     3.92444
   633   2    15.69777     7.84889     3.92444
   634   2    19.62221     7.84889     3.92444