4321
 Atoms. Timestep: 4193
2 -0.0974932 -7.30132 -22.7992
2 -3.98284 -3.74263 -22.8398
1 0.000554925 -3.75108 -22.698
2 3.95604 -3.80284 -22.7422
1 -7.63972 -0.310046 -22.9708
1 -3.85328 -0.145486 -22.9547
2 -0.086926 0.234847 -22.7734
2 4.18311 0.0212076 -22.8447
1 7.67792 -0.14778 -22.2005
1 -3.66546 4.28585 -22.7396
2 0.0474153 3.10451 -23.1954
1 4.34691 3.68983 -22.9246
2 0.619574 6.85443 -22.9447
2 -8.05141 -11.9637 -19.3208
1 -4.11338 -11.7319 -19.4518
3 0.138116 -11.3425 -19.1686
2 3.95294 -11.4014 -18.8993
2 7.74102 -11.3986 -18.7607
2 -11.3302 -8.19958 -19.0277
2 -7.12583 -7.66232 -18.9102
2 -3.9074 -7.54306 -18.9128
1 0.120146 -7.66888 -19.133
2 3.93152 -7.42945 -18.8302
1 7.63315 -7.56009 -19.001
2 11.5635 -8.52288 -19.4847
1 -11.7407 -4.18854 -19.3246
1 -7.57418 -3.79065 -18.9933
1 -3.78787 -3.73633 -18.9003
1 0.0545737 -3.7029 -19.1104
2 3.86679 -3.75868 -18.9597
2 7.51029 -3.66968 -18.8449
3 11.2575 -3.8344 -18.9819
1 -12.2065 -0.00330013 -20.2702
1 -7.69991 -0.0496309 -19.0596
3 -3.85917 0.019271 -19.2254
2 0.0122486 -0.0271476 -19.0531
2 3.79966 0.0758278 -18.9885
2 7.67205 -0.0219283 -19.0807
1 12.0586 0.0255466 -19.7672
2 -11.7873 4.27246 -19.2362
1 -7.54209 3.87841 -19.3822
2 -3.5947 3.84394 -19.1748
2 0.0163107 3.58802 -18.9626
2 3.6684 3.74644 -19.1225
2 7.74156 4.06646 -19.0395
2 11.9994 4.3644 -19.4428
2 -11.5829 7.67796 -18.8365
2 -7.53492 7.48109 -18.9607
1 -3.75741 7.68035 -18.892
1 0.0251032 7.64117 -18.8785
1 3.60708 7.65347 -19.2522
2 7.45078 7.69625 -19.0066
2 11.3477 8.02872 -18.7184
1 -8.0593 11.4572 -18.756
2 -4.02515 11.6256 -18.6232
1 -0.0876362 12.5778 -19.7997
2 4.11985 11.7367 -18.8937
1 7.65122 11.6375 -18.7828
2 -7.82213 -15.2801 -15.177
3 -3.72587 -15.1301 -15.3243
2 0.198163 -14.9297 -15.0935
2 3.71235 -15.3829 -15.0644
1 7.39141 -15.3669 -14.9968
1 -11.4016 -11.681 -15.2982
2 -7.55843 -11.1505 -15.1959
1 -3.71841 -11.1964 -15.1655
1 -0.0803377 -11.1416 -15.1893
2 3.80848 -11.2687 -15.1631
3 7.6272 -11.4133 -15.0475
1 11.4357 -11.8783 -15.333
1 -15.1198 -8.04575 -15.4525
3 -11.3097 -7.39753 -15.1478
1 -7.53575 -7.46672 -15.1489
3 -3.69203 -7.36381 -15.0036
3 0.0352144 -7.51953 -15.148
2 3.87889 -7.594 -14.975
3 7.62441 -7.65555 -14.942
2 11.4186 -7.76076 -15.1065
1 14.8313 -8.14003 -15.3951
1 -15.3805 -3.91337 -15.5568
1 -11.194 -3.67749 -15.0096
3 -7.47144 -3.76224 -15.1337
1 -3.81007 -3.64486 -15.0834
3 0.0611338 -3.69697 -15.0223
2 3.8319 -3.68766 -14.9446
2 7.58385 -3.8298 -15.0285
1 11.2782 -3.71388 -15.0754
1 14.7817 -3.96241 -15.4563
2 -15.3268 -0.115951 -14.9777
1 -11.4518 0.0346096 -15.2168
1 -7.42071 0.0251433 -15.1958
2 -3.845 -0.0195735 -15.2037
2 -0.0254374 0.0732148 -15.0204
1 3.71234 0.110596 -15.008
2 7.52984 0.140332 -15.1473
1 11.2896 -0.00146479 -15.1496
1 14.8643 -0.0264763 -15.2124
1 -15.5774 4.09911 -16.4605
2 -11.5113 3.9516 -15.2639
1 -7.42543 3.78436 -15.1531
2 -3.76219 3.8557 -15.0813
3 -0.0160188 3.78718 -14.978
3 3.66847 3.85114 -15.066
3 7.5242 3.81338 -15.0879
1 11.2742 3.866 -15.1645
1 16.1882 4.05557 -16.4365
2 -15.1362 7.46535 -15.2784
2 -11.6299 7.63467 -15.2558
1 -7.54856 7.52507 -15.0068
1 -3.76494 7.53492 -15.1049
2 0.0759228 7.73382 -15.1589
2 3.72559 7.68154 -15.1312
3 7.61579 7.65703 -15.0337
2 11.2628 7.63096 -15.192
2 15.3856 8.22223 -15.3933
2 -11.5182 11.4079 -15.2252
2 -7.70338 11.2473 -15.0168
1 -3.76368 11.398 -15.1609
2 0.0532413 11.5564 -15.1839
2 3.73726 11.4534 -15.0158
1 7.70788 11.5295 -14.9381
2 11.3821 11.5549 -15.0013
2 -8.11221 15.3046 -15.1192
1 -4.23519 16.6476 -16.3531
1 -0.249441 15.1501 -15.2178
1 4.09095 16.0246 -15.6978
1 8.38872 15.5693 -15.3185
1 -7.89497 -19.0031 -11.6634
1 -3.43127 -19.5445 -11.885
3 0.110554 -18.6124 -11.3098
2 3.30307 -19.9689 -12.4287
2 7.38653 -19.157 -10.9706
1 -11.751 -15.5938 -11.9425
2 -7.5024 -15.1014 -11.4379
1 -3.66064 -14.9555 -11.3179
2 -0.0354433 -14.9629 -11.2821
3 3.86314 -15.0202 -11.3769
1 7.55053 -15.1866 -11.3745
2 11.0809 -15.383 -11.3361
1 -15.2473 -11.5893 -11.7719
2 -11.2922 -11.3275 -11.5496
2 -7.54588 -11.2242 -11.2684
2 -3.70876 -11.1457 -11.392
2 -0.0507516 -11.1 -11.305
1 3.83482 -11.226 -11.1957
2 7.54867 -11.2761 -11.2448
1 11.312 -11.2707 -11.0903
1 14.9502 -11.8717 -11.6405
2 -18.5939 -7.69666 -11.4385
1 -15.2147 -7.45096 -11.5079
2 -11.2472 -7.35164 -11.2025
1 -7.49752 -7.34037 -11.1923
2 -3.85655 -7.4586 -11.246
3 0.0535098 -7.41541 -11.1634
2 3.73887 -7.43696 -11.2267
2 7.49824 -7.56555 -11.1632
3 11.3758 -7.5109 -11.3148
2 15.3348 -7.48464 -11.5327
2 18.8369 -8.29324 -11.7891
2 -19.2489 -4.23536 -11.7525
2 -15.125 -3.68155 -11.3755
3 -11.2476 -3.75024 -11.3372
1 -7.39472 -3.61013 -11.1864
3 -3.766 -3.78614 -11.1578
1 0.0138188 -3.6636 -11.2642
1 3.75493 -3.7412 -11.2168
1 7.51533 -3.77147 -11.1418
1 11.3134 -3.82027 -11.3564
3 14.7777 -3.77243 -11.2073
2 19.265 -4.06041 -12.2175
2 -19.5121 0.302499 -11.7901
1 -15.2059 -0.123728 -11.3865
2 -11.4139 0.0663004 -11.1478
2 -7.4491 -0.0959284 -11.2756
3 -3.83439 -0.108878 -11.3561
3 -0.0554861 -0.0502345 -11.1422
3 3.79618 0.106463 -11.2438
2 7.53866 0.0754525 -11.3882
3 11.3091 -0.127618 -11.2397
1 15.0258 -0.12221 -11.4124
2 18.7728 0.016413 -11.5993
1 -20.4348 4.28521 -11.6018
2 -15.2901 3.68954 -11.4654
2 -11.3362 3.82193 -11.3109
1 -7.51928 3.74568 -11.3766
3 -3.81592 3.79528 -11.376
1 -0.0289346 3.76111 -11.145
2 3.71427 3.86491 -11.1494
2 7.51246 3.7506 -11.3394
2 11.2252 3.75166 -11.4033
1 15.1715 3.6359 -11.3988
1 19.0948 3.95661 -12.0783
2 -18.9776 7.44668 -11.5319
3 -15.2814 7.3223 -11.3018
2 -11.4194 7.51858 -11.2395
3 -7.60142 7.51336 -11.3072
3 -3.79281 7.39562 -11.3864
3 0.0234107 7.52551 -11.2133
2 3.73545 7.58778 -11.1682
3 7.54019 7.42887 -11.1756
2 11.2823 7.54939 -11.1976
2 15.1535 7.54489 -11.3029
3 18.7645 7.71124 -11.424
2 -15.1988 11.1128 -11.3191
3 -11.4263 11.2092 -11.1961
1 -7.55702 11.2148 -11.3282
1 -3.76276 11.2856 -11.3374
3 0.0878693 11.4267 -11.2542
2 3.75106 11.1961 -11.2332
1 7.62444 11.3853 -11.2534
2 11.4499 11.3208 -11.1922
1 15.6026 11.7681 -11.5708
2 -11.6254 15.2646 -11.1372
2 -7.51374 15.1286 -11.3578
2 -3.84942 15.1253 -11.3079
2 -0.0776861 15.1004 -11.3975
3 3.82833 15.2561 -11.3034
1 7.81248 15.3663 -11.3053
1 11.986 15.3755 -11.5078
2 -7.966 18.829 -11.415
2 -4.22639 19.6518 -11.8182
2 0.0829461 19.1161 -11.5214
2 4.18189 19.1429 -11.4056
2 8.07546 18.6207 -11.0233
2 0.121478 -23.1443 -7.31724
2 -11.3022 -18.8867 -7.9968
2 -6.86116 -19.1219 -7.76494
2 -3.92044 -19.3966 -8.19062
2 0.110576 -18.8787 -7.5942
2 3.75048 -18.9488 -7.68889
2 7.66779 -18.7549 -7.36773
2 11.1329 -19.043 -7.40531
2 -15.2852 -15.364 -8.32131
2 -11.1823 -15.2682 -7.59861
1 -7.50146 -15.2032 -7.64487
3 -3.65959 -15.0231 -7.52261
3 -0.0687776 -15.1182 -7.5316
3 3.79607 -15.11 -7.48408
1 7.55903 -15.1525 -7.32611
3 11.3685 -15.1732 -7.52039
1 14.9864 -15.4286 -7.92914
1 -18.8438 -11.5566 -8.26232
2 -15.1464 -11.1997 -7.61548
2 -11.3497 -11.3549 -7.58891
1 -7.48728 -11.1896 -7.54328
2 -3.70442 -11.0697 -7.47219
3 -0.0165722 -11.2114 -7.50285
2 3.78369 -11.2383 -7.43875
2 7.52679 -11.2225 -7.41193
2 11.4263 -11.316 -7.34906
1 15.1761 -11.4833 -7.56315
1 18.5497 -11.6107 -7.87866
3 -18.8825 -7.51386 -7.5751
1 -14.9988 -7.51679 -7.57426
3 -11.2705 -7.38188 -7.57822
1 -7.44083 -7.3436 -7.52759
1 -3.75005 -7.32896 -7.28432
3 -0.0238611 -7.26183 -7.32558
3 3.7889 -7.39691 -7.45138
2 7.60595 -7.35421 -7.47512
3 11.2578 -7.45165 -7.39612
2 15.209 -7.45849 -7.53901
2 18.9281 -7.71787 -7.59557
1 -19.0337 -3.90554 -7.60327
3 -15.218 -3.87898 -7.40352
3 -11.3273 -3.79181 -7.54127
3 -7.51859 -3.67388 -7.49316
3 -3.7622 -3.66151 -7.38512
3 -0.0208046 -3.60252 -7.44902
3 3.71824 -3.58253 -7.3945
3 7.62264 -3.78277 -7.36845
3 11.2964 -3.6736 -7.4636
1 15.0269 -3.73591 -7.53606
2 18.8879 -3.8913 -7.63324
2 -22.8174 -0.244991 -7.3273
3 -19.1094 -0.0603832 -7.68419
1 -15.1987 -0.0403806 -7.52277
1 -11.3128 -0.0907064 -7.43562
2 -7.50315 -0.0684523 -7.4122
3 -3.72173 -0.0313863 -7.44881
1 0.0705401 -0.0073714 -7.45321
2 3.70652 -0.00239679 -7.45579
3 7.45416 -0.0642042 -7.43943
3 11.2615 -0.0983163 -7.50496
2 14.929 -0.0387437 -7.51886
2 18.8654 0.0355532 -7.57407
1 21.307 -1.39007 -7.92829
2 -19.1646 3.73091 -7.6798
1 -15.1343 3.77975 -7.50883
2 -11.281 3.75186 -7.4207
3 -7.52079 3.62401 -7.53224
2 -3.61527 3.61212 -7.39302
3 -0.0739639 3.77192 -7.52528
3 3.62583 3.74185 -7.45792
1 7.44782 3.74747 -7.51565
2 11.3084 3.645 -7.41559
1 15.0672 3.76762 -7.68344
1 18.8089 3.76962 -7.78724
1 -19.2202 7.10183 -7.63449
2 -15.1323 7.47836 -7.5701
1 -11.2892 7.48561 -7.57354
2 -7.52221 7.45628 -7.48315
2 -3.48949 7.45301 -7.54415
3 -0.0396097 7.50577 -7.44673
2 3.61128 7.42443 -7.51188
3 7.46153 7.51763 -7.36082
3 11.2451 7.60687 -7.42957
2 15.1234 7.60397 -7.44683
1 18.8527 7.55343 -7.13677
1 -19.1278 11.1643 -7.6806
2 -15.2083 11.226 -7.56485
2 -11.3079 11.1932 -7.43841
3 -7.55188 11.2144 -7.45959
1 -3.76841 11.1964 -7.5347
3 -0.10132 11.1792 -7.51207
3 3.70535 11.1845 -7.48907
1 7.39562 11.2242 -7.42137
3 11.3196 11.3395 -7.22416
2 15.2585 11.1366 -7.25208
2 19.645 12.4154 -8.87808
2 -15.434 14.9668 -7.70019
2 -11.3195 14.9335 -7.40082
3 -7.65349 15.1633 -7.60657
2 -3.71716 15.0755 -7.53117
2 -0.109401 15.0169 -7.44829
3 3.83979 15.0515 -7.4547
2 7.50277 15.0626 -7.44177
3 11.1687 15.0755 -7.35074
3 15.2613 14.744 -7.47467
2 -11.7311 18.9764 -7.66333
1 -7.57302 19.0652 -7.4016
2 -3.8907 18.9639 -7.56594
2 -0.0479677 18.9709 -7.48841
1 3.96171 19.1126 -7.51614
1 7.36803 18.9762 -7.18846
2 11.7926 18.6144 -7.4844
2 0.0642915 22.7872 -7.26389
1 -3.84784 -22.5354 -4.02895
1 0.889153 -23.1465 -3.12593
1 3.57516 -22.9289 -3.49885
2 -11.2536 -19.3758 -3.97626
2 -7.35114 -18.9815 -3.8767
2 -3.54232 -18.8783 -3.75536
2 0.263773 -18.8635 -3.75427
1 3.81647 -19.0026 -3.69669
1 7.47603 -18.9803 -3.74046
2 11.5239 -19.0859 -3.8851
2 -15.2277 -15.1145 -3.96133
1 -11.1791 -15.1513 -3.75955
1 -7.13815 -15.0574 -3.77956
2 -3.64897 -15.0459 -3.67832
3 0.0558782 -15.0046 -3.5816
2 3.78289 -14.8886 -3.67884
1 7.50306 -14.9726 -3.80707
2 11.4448 -15.191 -3.66014
1 15.3832 -15.5019 -3.88859
1 -19.3375 -11.7686 -4.12984
2 -15.0122 -11.2973 -3.6427
3 -11.321 -11.2966 -3.71402
1 -7.42055 -11.2508 -3.69031
2 -3.65976 -11.0632 -3.63996
3 0.0293688 -11.134 -3.71476
1 3.82285 -11.2513 -3.63881
2 7.46795 -11.2137 -3.73294
3 11.3678 -11.1883 -3.82607
3 15.164 -11.3091 -3.79907
2 19.2557 -11.7807 -4.04462
2 -19.1149 -7.56604 -3.52775
2 -14.9952 -7.43953 -3.6946
2 -11.3284 -7.42359 -3.69244
3 -7.47742 -7.49236 -3.64657
3 -3.61309 -7.24324 -3.74073
1 0.0378154 -7.32695 -3.70344
2 3.93962 -7.32244 -3.72208
2 7.45052 -7.37383 -3.75125
2 11.2904 -7.3988 -3.77143
2 15.0533 -7.3718 -3.70501
1 18.9669 -7.55053 -3.58091
2 -22.8706 -3.82461 -3.76883
1 -18.9146 -3.85635 -3.62383
1 -15.0224 -3.89954 -3.72503
1 -11.266 -3.74173 -3.63899
3 -7.52464 -3.74817 -3.70854
3 -3.67541 -3.74566 -3.75643
3 0.0158862 -3.66327 -3.79056
3 3.7625 -3.69304 -3.67363
3 7.5212 -3.64564 -3.69324
2 11.1245 -3.83266 -3.71975
3 15.0907 -3.76564 -3.80411
3 18.9614 -3.86442 -3.72729
2 23.9329 -3.67313 -2.49376
2 -22.865 -0.134159 -3.41373
3 -19.0676 -0.0261936 -3.67101
1 -15.1449 -0.0753975 -3.61721
2 -11.1992 -0.0801558 -3.69933
3 -7.45797 -0.0770803 -3.61239
3 -3.73104 0.0941591 -3.64852
3 -0.109983 0.032759 -3.70354
1 3.65262 -0.00266818 -3.68946
3 7.36017 -0.0656525 -3.75769
1 11.2313 -0.122673 -3.85887
1 15.0037 -0.094954 -3.68369
1 18.8802 -0.0690962 -3.91441
1 22.7885 0.0184639 -3.6825
2 -22.9142 3.74319 -3.54538
2 -19.0065 3.54638 -3.7325
1 -14.9572 3.67935 -3.67393
2 -11.2481 3.7064 -3.70907
1 -7.4277 3.70284 -3.65828
3 -3.7697 3.70382 -3.68456
3 -0.00681145 3.74651 -3.6551
1 3.64844 3.62654 -3.71676
3 7.44994 3.73775 -3.63093
3 11.1908 3.71031 -3.76427
2 15.0641 3.63005 -3.74968
1 19.0222 3.72921 -3.8782
2 22.7949 3.53274 -3.51924
3 -18.9286 7.44731 -3.75192
2 -14.9841 7.48889 -3.75271
3 -11.2674 7.44299 -3.7938
2 -7.43386 7.40412 -3.6677
3 -3.71172 7.38417 -3.77421
3 -0.040071 7.39504 -3.65107
3 3.69442 7.43689 -3.73917
3 7.50946 7.40991 -3.61048
3 11.2794 7.42344 -3.71892
3 15.0874 7.26144 -3.75216
2 18.9553 7.64412 -3.81432
2 -18.9063 11.2917 -3.7244
1 -15.2579 11.4444 -3.79942
2 -11.2376 11.3397 -3.71436
1 -7.35864 11.214 -3.75639
3 -3.77613 11.2244 -3.77645
3 -0.0187626 11.1662 -3.68917
1 3.65954 11.2296 -3.69712
3 7.57554 11.1339 -3.82999
1 11.1577 11.0718 -3.70751
3 14.976 11.2745 -3.62639
2 19.5282 11.5409 -4.19451
1 -15.9539 15.7137 -3.78692
3 -11.2801 15.101 -3.89469
2 -7.42074 15.0203 -3.7728
3 -3.83053 15.0265 -3.82474
3 -0.0355006 14.8647 -3.79532
3 3.69311 14.9311 -3.88596
1 7.45894 14.8597 -3.71576
2 11.3635 15.1855 -3.81717
2 15.7819 15.1891 -3.49996
3 -11.4116 18.9287 -3.90148
1 -7.82795 19.0173 -3.71843
2 -3.88235 18.8823 -3.66633
3 -0.0510139 18.7154 -3.74906
1 3.65268 18.6814 -3.7485
2 7.48392 19.101 -3.69549
1 11.5265 20.2184 -5.26357
1 -3.96185 22.5861 -3.81718
2 0.705756 23.0035 -3.21093
2 3.56362 22.7945 -3.52703
2 -7.40377 -22.5755 0.00642589
3 -3.55729 -22.6067 0.03671
1 0.0561038 -23.2044 -0.64939
1 3.93743 -22.9853 0.803024
2 7.43551 -22.6966 0.0975005
2 -11.4097 -19.49 -0.237241
2 -7.40013 -18.9523 0.0216322
3 -3.68904 -18.8209 -0.0632223
2 0.154631 -18.7644 0.149075
2 3.80393 -18.7752 0.064725
2 7.56621 -18.7539 -0.0880369
1 11.6153 -19.3082 -0.0194319
1 -15.1644 -15.1731 -0.0240644
3 -11.2409 -15.3021 0.0104975
2 -7.35087 -14.9427 -0.00927507
3 -3.55947 -14.8793 0.0813796
2 0.108366 -14.9465 0.0712053
3 3.84372 -14.9744 0.0864715
2 7.58512 -14.9609 -0.00829603
1 11.3803 -15.1329 0.0015068
2 15.3255 -15.0043 0.323982
2 -18.9446 -11.3735 0.152144
2 -14.9864 -11.3893 0.0035131
2 -11.2439 -11.3312 0.0567647
3 -7.40315 -11.2725 -0.062957
3 -3.62891 -11.1036 0.0310352
3 0.0999816 -11.1598 -0.0383595
3 3.69662 -11.143 0.0611494
2 7.45729 -11.2664 -0.0921751
2 11.3639 -11.1899 -0.131905
1 15.1165 -11.1945 0.0441608
2 19.1225 -11.251 0.109628
2 -22.7281 -7.70376 -0.0993851
3 -18.9337 -7.67435 0.0479496
2 -14.9763 -7.5585 0.133428
3 -11.2586 -7.48394 0.0349678
2 -7.36418 -7.59868 -0.0075355
3 -3.74795 -7.42704 0.0383011
3 0.0721703 -7.45464 0.0638096
3 3.80015 -7.31646 -0.0162222
3 7.36107 -7.52613 0.0913204
2 11.2211 -7.61557 0.0314676
3 15.045 -7.52169 0.0246017
2 18.6792 -7.3859 0.254143
1 22.6163 -7.40434 0.514037
1 -22.9036 -3.96193 0.0552318
1 -18.8739 -3.97737 0.0928711
2 -15.0557 -3.89247 0.128191
3 -11.1365 -3.6494 0.152364
3 -7.34513 -3.64634 0.0513322
3 -3.64809 -3.75471 0.0355458
3 0.0645749 -3.49462 0.0091707
3 3.71238 -3.67616 0.116361
3 7.28692 -3.64707 0.135226
3 11.2231 -3.78783 0.118206
3 15.0244 -3.74302 -0.0767467
1 18.9432 -3.80475 -0.00673334
1 23.5408 -3.75448 0.0462926
2 -22.7074 -0.0941058 0.392319
3 -18.984 -0.0898171 0.113425
2 -15.0635 -0.0518637 0.0720752
3 -11.0412 -0.0137293 0.0577628
3 -7.35079 -0.0634401 -0.0752059
3 -3.65263 0.030325 0.0194002
3 -0.0697643 0.0822046 0.0263212
1 3.71681 0.0511356 0.044264
1 7.37714 -0.0340236 0.0965982
1 11.2164 -0.0535371 0.0006039
1 15.042 -0.0266479 0.0456409
1 18.9733 -0.135385 -0.0385035
1 22.832 0.0673957 0.32674
3 -22.7087 3.79665 0.415128
3 -18.8639 3.60639 0.10726
3 -14.8625 3.76196 -0.0482609
3 -11.1732 3.6949 0.038353
3 -7.4088 3.74933 0.0661434
3 -3.58789 3.64173 0.144149
3 0.0250826 3.63951 0.112099
3 3.61698 3.68468 0.0785136
3 7.39034 3.65541 -0.0445591
3 11.1411 3.55424 0.10742
1 14.9105 3.70286 0.133897
2 19.0694 3.91715 0.240961
1 22.857 3.82218 0.135463
2 -22.6305 7.4129 0.320925
3 -18.8263 7.50629 0.0946856
2 -14.8998 7.43724 -0.0668986
3 -11.2007 7.39658 0.0481695
1 -7.41781 7.44166 0.08395
3 -3.67479 7.40203 0.0401253
3 -0.00573236 7.3092 -0.0146661
3 3.72116 7.37967 0.139067
3 7.33153 7.46743 0.10075
3 11.1788 7.45429 0.0864633
2 14.8974 7.40607 0.12272
2 18.7995 7.5483 0.0655109
2 22.9795 7.31836 0.170559
2 -18.8218 11.4052 -0.0706743
3 -15.1141 11.3487 0.0272073
2 -11.1312 11.2959 -0.117168
3 -7.37458 11.097 -0.0857375
3 -3.78583 11.1149 0.131481
3 -0.064039 11.1242 -0.0469888
3 3.73522 11.2146 0.0118416
3 7.32418 11.1548 0.13878
2 11.096 11.0902 0.0726289
2 15.1079 11.2891 -0.0179209
1 20.1534 11.553 0.248608
2 -15.0856 15.1424 -0.0828958
2 -11.4116 15.0252 0.0576721
2 -7.43829 15.0173 -0.104484
3 -3.81628 15.0602 -0.0584939
1 0.00269608 15.0052 -0.0145987
3 3.68057 14.8921 0.0696406
2 7.38264 14.8227 0.0206644
2 11.2575 14.8769 0.0288617
2 15.2741 14.896 0.0866545
1 -12.1059 20.1351 -0.098669
2 -7.57196 18.9589 -0.0766079
1 -3.8141 18.9185 -0.0248667
1 -0.0903458 18.959 -0.00616332
2 3.68785 18.7106 0.00326098
1 7.70456 18.9125 -0.0433808
1 12.7923 19.7595 -0.865877
2 -7.50005 22.7036 -0.114914
2 -3.78786 23.0118 -0.158775
1 0.001604 22.8314 -0.130656
2 4.47343 22.9513 0.232909
2 7.25699 22.8214 -0.135859
2 -3.52316 -22.6876 3.55267
2 0.211424 -22.6187 3.79089
1 3.53006 -22.6986 3.54047
1 -11.5793 -19.2907 3.91826
2 -7.39271 -18.9178 3.72428
3 -3.63447 -18.731 3.63048
2 0.115638 -18.7194 3.77739
3 3.86105 -18.7873 3.7761
1 7.67242 -18.8117 3.59857
2 11.8683 -19.2552 4.03446
2 -15.2559 -15.3597 3.81405
2 -11.3482 -15.2124 3.803
3 -7.42834 -15.1442 3.79445
2 -3.6733 -15.028 3.73234
3 0.14715 -14.9853 3.83842
1 3.80513 -14.9909 3.77438
3 7.78089 -15.0847 3.69835
2 11.4448 -15.2767 3.87028
1 15.9332 -15.8961 3.94193
1 -19.1247 -11.5735 4.09162
3 -14.9598 -11.4584 3.78276
2 -11.1695 -11.2656 3.64339
3 -7.54615 -11.2748 3.64057
3 -3.74415 -11.2581 3.7833
3 0.0907917 -11.1986 3.81832
3 3.89489 -11.1199 3.66639
2 7.46385 -11.1609 3.69911
2 11.3728 -11.2614 3.71223
2 14.9463 -11.422 3.68587
1 19.4133 -11.8631 4.40431
2 -18.9697 -7.73717 3.79391
3 -14.905 -7.64264 3.79116
2 -11.2137 -7.39463 3.77736
3 -7.39254 -7.4862 3.65905
3 -3.48195 -7.5063 3.67168
3 0.0980941 -7.40272 3.77802
3 3.68147 -7.4179 3.70757
2 7.40773 -7.41147 3.75002
2 11.2968 -7.53948 3.70396
2 15.0378 -7.57173 3.80832
3 18.9034 -7.50844 3.81387
1 -22.7456 -4.25156 3.93964
2 -18.8335 -3.88235 3.83346
3 -14.8924 -3.76233 3.74815
2 -11.0881 -3.71714 3.70332
3 -7.2331 -3.74825 3.78849
3 -3.66624 -3.71936 3.7109
2 0.103857 -3.68513 3.68731
3 3.6908 -3.64237 3.72973
3 7.28798 -3.6956 3.71901
1 11.1614 -3.7976 3.67693
3 15.0465 -3.89908 3.82889
1 18.9882 -3.91102 3.88211
2 22.735 -3.83882 4.08433
1 -23.3389 -0.168691 3.39792
1 -18.8246 0.0219381 3.72708
3 -14.9624 -0.0374997 3.67952
1 -11.0941 4.9666e-05 3.67677
3 -7.3638 -0.00833838 3.8668
3 -3.72975 0.0351778 3.71423
3 0.0159347 0.111732 3.73059
3 3.61742 0.061404 3.75426
2 7.40872 0.0136569 3.72877
2 11.1388 0.0234374 3.67631
1 14.9664 -0.0580614 3.80702
1 18.7999 0.010418 4.00278
2 22.6542 0.0797753 3.94142
1 -23.3608 3.60144 4.18585
2 -18.6035 3.67255 3.72574
3 -14.9089 3.75331 3.6429
3 -11.079 3.65562 3.76894
3 -7.31688 3.59745 3.74041
2 -3.69359 3.69192 3.69203
3 -0.0261873 3.6404 3.69936
3 3.68516 3.70946 3.78478
3 7.38054 3.90241 3.73884
1 11.1669 3.64931 3.7936
1 14.9549 3.71961 3.89123
2 18.7918 3.59093 3.7687
1 22.6583 3.84312 4.11019
1 -18.7104 7.36419 3.83159
3 -14.8476 7.47128 3.72483
2 -11.1914 7.37895 3.6377
3 -7.40062 7.39058 3.62097
3 -3.53625 7.42388 3.77153
3 -0.00944778 7.40394 3.8227
3 3.65892 7.46303 3.73747
2 7.30084 7.36033 3.72968
1 11.2137 7.52211 3.91933
3 15.0071 7.53262 3.73585
2 18.7248 7.57626 3.92357
1 -18.9988 11.7665 4.16915
1 -14.9369 11.2902 3.67817
1 -11.2004 11.2253 3.54877
3 -7.44413 11.1923 3.71544
2 -3.75489 11.1349 3.76265
3 -0.0126124 11.2346 3.80614
2 3.73817 11.3381 3.79084
1 7.32915 11.1143 3.84999
2 11.1479 11.0687 3.83311
1 14.9534 11.3141 3.8457
2 20.111 11.0012 4.81608
2 -15.1788 15.2282 4.0008
2 -11.169 15.0035 3.67512
2 -7.51391 14.9429 3.55772
2 -3.82719 14.9623 3.64261
3 -0.00212704 15.1193 3.6863
2 3.66267 14.9671 3.71092
3 7.43834 15.0622 3.8558
2 11.3309 15.1339 3.7704
3 15.0957 15.0105 3.63363
1 -11.7142 19.5015 4.09657
2 -7.68123 18.9948 3.65086
2 -3.79737 18.8914 3.62318
1 -0.106639 18.917 3.75051
1 3.64693 18.7978 3.51688
2 7.38943 18.7628 3.68682
2 11.7905 19.3706 3.27295
2 -4.07499 22.6206 3.99936
1 -0.119896 22.7692 3.68994
2 3.76835 22.8081 3.67602
2 0.360855 -22.7805 7.4991
2 -11.2634 -18.8277 7.55269
1 -7.46269 -18.8748 7.3082
3 -3.4761 -18.9576 7.68566
1 0.0614607 -19.071 7.69583
1 3.98459 -19.0332 7.68686
1 7.67215 -18.9103 7.69715
2 11.4299 -18.801 7.8004
2 -15.2581 -15.4838 7.91312
3 -11.2624 -15.2594 7.45837
1 -7.54851 -15.1471 7.40462
3 -3.74485 -15.0736 7.48659
1 0.0621965 -15.0196 7.60322
1 3.83915 -14.9987 7.55058
3 7.6653 -15.0322 7.61564
2 11.2358 -14.9481 7.60476
2 14.9544 -15.0049 8.12043
2 -18.5488 -11.5607 7.82409
1 -14.977 -11.4381 7.61581
1 -11.3641 -11.2725 7.64439
3 -7.48174 -11.2343 7.47028
3 -3.76957 -11.3223 7.28665
2 0.0445803 -11.1906 7.3528
3 3.95635 -11.1298 7.50716
3 7.64017 -11.2666 7.497
1 11.2727 -11.3168 7.51796
1 15.1882 -11.6516 7.67859
1 18.8414 -11.8127 8.43248
2 -18.7477 -7.52469 7.81206
2 -14.8917 -7.55579 7.57493
2 -11.3014 -7.54515 7.39747
3 -7.35048 -7.5034 7.59165
3 -3.74939 -7.50635 7.52036
3 0.0423274 -7.37457 7.44744
3 3.70985 -7.38429 7.42963
2 7.38219 -7.38729 7.52339
1 11.3405 -7.64653 7.60528
2 15.19 -7.67454 7.60057
1 18.6253 -7.626 7.74659
2 -18.9082 -3.81389 7.57069
2 -14.8555 -3.74291 7.57269
1 -11.0824 -3.71903 7.42767
3 -7.45262 -3.73615 7.47832
3 -3.6484 -3.75685 7.45702
1 0.0195991 -3.66018 7.40391
1 3.62876 -3.75148 7.37252
2 7.34882 -3.72067 7.47062
1 11.2159 -3.70515 7.5971
3 15.0181 -3.76896 7.5589
3 18.9148 -3.78864 7.6484
2 -22.5633 -0.256888 7.4105
1 -18.7893 -0.0195053 7.52782
2 -14.9685 0.00396579 7.38544
3 -11.1972 -0.0418167 7.40361
3 -7.3091 0.0240196 7.47725
3 -3.87085 0.0629735 7.40666
3 -0.100518 -0.103041 7.42238
3 3.69718 -0.00927214 7.4329
1 7.35591 0.00893291 7.43016
1 11.2184 -0.000985441 7.50438
1 14.9783 -0.0557243 7.56745
1 18.7975 -0.0383766 7.62976
1 22.4459 0.141073 7.67669
2 -18.9627 3.679 7.64681
2 -15.0103 3.78613 7.31648
3 -11.133 3.70521 7.4904
3 -7.39708 3.86063 7.37134
3 -3.77307 3.72948 7.3694
3 -0.0309552 3.64936 7.4061
3 3.64237 3.65558 7.47429
3 7.4284 3.73149 7.4725
2 11.1538 3.70816 7.5022
3 14.7981 3.60962 7.63614
3 18.6783 3.76805 7.61791
1 -18.703 7.52709 7.40864
1 -15.0138 7.46792 7.48907
3 -11.2536 7.45616 7.42533
2 -7.46794 7.38641 7.40409
3 -3.65247 7.40688 7.50143
3 -0.123556 7.48682 7.38352
3 3.58161 7.41854 7.49702
3 7.37731 7.59254 7.5126
3 11.2421 7.37248 7.50078
3 14.9922 7.55593 7.65595
1 18.7037 7.27017 7.37537
1 -18.4348 11.5172 7.8999
2 -15.1153 11.3819 7.54665
3 -11.2502 11.3453 7.53472
2 -7.48065 11.1647 7.47104
2 -3.76721 11.2251 7.4774
2 -0.0522383 11.2271 7.5921
3 3.66286 11.2712 7.56862
2 7.39079 11.3787 7.54934
2 11.2749 11.3959 7.52612
2 15.1731 11.3932 7.8894
2 19.0789 11.5871 7.26959
1 -15.0064 15.3657 8.34969
1 -11.2846 15.2516 7.4944
2 -7.51726 15.0407 7.43405
2 -3.83464 15.0702 7.48805
1 -0.100047 15.1002 7.53282
3 3.70243 15.0364 7.42292
2 7.52503 15.119 7.45005
2 11.4339 15.1678 7.51143
2 15.4922 15.6222 7.19778
1 -11.1906 18.8944 8.23618
3 -7.60134 18.828 7.35027
1 -4.06591 18.9344 7.70342
2 -0.272292 18.999 7.5539
2 3.65703 19.0196 7.24881
2 7.328 18.8252 7.26962
1 11.5207 19.0352 7.34415
2 -0.24556 22.7162 7.23503
2 -7.67163 -18.9022 11.1988
2 -3.77027 -19.663 11.2764
2 -0.0906633 -19.6522 11.4443
2 4.11604 -19.0714 11.1489
1 7.51297 -19.0815 11.4803
2 -11.7454 -15.6968 11.6448
2 -7.52553 -15.1779 11.2278
3 -3.80789 -15.1008 11.3629
2 -0.124138 -15.1241 11.3708
1 3.85044 -15.0499 11.351
3 7.65556 -15.0295 11.329
2 11.3478 -15.474 11.7097
2 -15.1267 -11.4508 11.4288
1 -11.3194 -11.3645 11.4006
1 -7.50735 -11.3483 11.2924
1 -3.66832 -11.2836 11.3015
3 0.0257536 -11.3118 11.2535
1 3.88623 -11.2246 11.2141
1 7.49748 -11.2872 11.3216
2 11.2566 -11.2458 11.4238
2 15.2651 -12.1929 12.361
2 -19.1477 -8.77287 12.0241
2 -15.1678 -7.38826 11.4789
1 -11.1757 -7.52319 11.3302
1 -7.43873 -7.64388 11.1866
3 -3.62226 -7.52955 11.0299
3 -0.0838342 -7.5186 11.1744
3 3.74909 -7.42591 11.2936
3 7.47774 -7.45365 11.45
3 11.3352 -7.47818 11.2821
3 15.0621 -7.8629 11.5095
1 18.428 -7.9672 11.7331
2 -19.2886 -4.49308 11.9028
2 -15.0882 -3.78569 11.1916
2 -11.3611 -3.77082 11.332
3 -7.38833 -3.7324 11.1815
2 -3.66854 -3.70214 11.1886
3 -0.0340658 -3.70805 11.1306
3 3.7005 -3.66425 11.1791
3 7.43064 -3.79226 11.3536
2 11.1907 -3.70442 11.3272
2 15.0354 -3.74747 11.3455
1 18.7478 -4.09691 12.3258
2 -18.9713 0.0662751 11.5204
3 -14.9385 -0.0575093 11.1802
2 -11.2609 0.0309107 11.2457
1 -7.4564 0.0427924 11.1462
3 -3.78921 0.0917032 11.2086
1 0.0179307 -0.0392735 11.1294
2 3.69881 0.0831913 11.3065
3 7.39701 0.00394921 11.189
1 11.0663 -0.01 11.4771
2 14.9845 -0.157123 11.3935
3 18.5815 0.024616 11.4548
2 -19.6936 4.43625 11.7544
1 -15.2213 3.75023 11.3131
3 -11.2446 3.78741 11.1932
2 -7.49113 3.71158 11.1713
2 -3.77185 3.78291 11.1858
3 -0.142106 3.6899 11.2592
2 3.52978 3.67558 11.3339
1 7.43925 3.86311 11.3038
3 11.0601 3.70996 11.36
3 14.8372 3.65878 11.4081
1 19.3567 4.08066 11.9313
2 -18.7764 7.77281 11.3846
2 -14.9357 7.5807 11.2254
2 -11.4469 7.56875 11.196
1 -7.54779 7.46239 11.2498
3 -3.88039 7.4311 11.2278
3 -0.191424 7.4546 11.2234
2 3.55725 7.45415 11.1719
2 7.36884 7.52084 11.2346
1 11.3113 7.50637 11.4745
2 15.027 7.48676 11.3309
2 18.9529 8.27316 11.0343
2 -14.8313 11.4952 11.5971
1 -11.3376 11.1981 11.15
2 -7.56777 11.0723 11.3101
3 -3.89728 11.3448 11.2219
2 -0.207372 11.4069 11.2264
2 3.55526 11.3344 11.3099
1 7.30749 11.4409 11.1968
2 11.0886 11.2208 11.2209
2 15.3003 11.807 10.7602
2 -11.4717 15.2913 11.8072
3 -7.62489 15.1721 11.3957
1 -3.87639 15.2289 11.2758
2 -0.073956 15.1831 11.2082
2 3.73012 15.1214 11.1477
2 7.28396 15.0711 11.3966
2 11.7194 15.6779 11.1509
1 -8.08531 19.0852 12.3064
2 -5.42261 19.9268 11.9355
1 -0.399504 19.353 11.7336
1 4.01161 19.5424 11.5397
2 7.54955 18.9612 11.1543
1 -7.96765 -15.3711 15.1794
1 -3.71323 -16.1226 16.1993
2 0.114206 -15.1432 14.9258
2 3.44071 -15.5527 15.5678
3 7.55345 -15.283 15.2565
1 -11.464 -11.8128 15.3832
1 -7.44539 -11.3342 15.1555
1 -3.66545 -11.2071 14.9429
1 0.0734061 -11.3669 15.1799
2 3.80126 -11.3732 15.1667
2 7.63396 -11.2464 15.3311
2 11.2381 -11.5393 15.5434
2 -15.3409 -8.7557 15.5618
2 -11.2714 -7.52458 15.2103
1 -7.36207 -7.55205 15.1542
1 -3.76441 -7.57334 15.1124
3 0.0267819 -7.40983 15.0838
2 3.59294 -7.41121 15.0122
2 7.51173 -7.51013 15.1935
3 11.3247 -7.45299 15.1539
2 14.6551 -7.86827 15.5207
1 -15.8731 -4.31768 15.733
2 -11.2728 -3.7863 15.2718
1 -7.36653 -3.82474 15.0744
1 -3.74153 -3.90873 14.9244
2 0.0297328 -3.76429 14.9322
2 3.60997 -3.74334 15.0763
3 7.24898 -3.81681 14.9961
1 11.5434 -3.68176 15.5916
1 16.0764 -4.00472 16.5461
2 -15.1175 -0.0245973 14.8969
1 -11.4116 -0.0416807 15.1728
2 -7.47687 -0.115399 15.1436
2 -3.83523 -0.015179 15.0446
3 0.0189535 0.0379385 15.1799
3 3.67637 -0.028155 14.9164
1 7.28458 -0.00116282 15.1563
1 11.0765 0.15961 15.2069
1 15.1036 0.00365863 15.3065
1 -15.786 4.05537 16.1847
1 -11.3721 3.81891 15.0198
1 -7.69331 3.67924 15.0284
3 -3.87901 3.76775 15.065
2 -0.148567 3.81495 14.9556
2 3.56029 3.88428 15.0472
2 7.25137 3.78764 15.1765
2 11.1212 3.79045 15.143
3 14.9773 4.00991 15.1628
2 -14.7479 8.04633 15.294
3 -11.3234 7.30346 14.9637
3 -7.61203 7.43409 14.9507
1 -3.89002 7.48714 15.0076
2 -0.136023 7.60137 15.0781
3 3.56911 7.53908 15.1623
3 7.25214 7.7095 15.0799
1 11.2363 7.56564 15.2065
2 15.2411 8.46583 15.0107
2 -11.1491 11.4554 15.4304
3 -7.7902 11.1906 14.9434
2 -4.12442 11.3342 15.1735
1 -0.292919 11.3131 15.0626
3 3.46212 11.457 15.0243
1 7.26902 11.3603 15.1726
2 11.4702 11.8988 14.7906
1 -7.80507 15.2177 15.5998
1 -4.3342 15.2885 15.2564
1 -0.377952 15.3768 14.9586
2 3.73959 15.4732 15.0506
2 8.05548 15.6911 15.0216
2 -7.45438 -11.4856 18.8073
2 -3.76004 -11.6893 19.0986
1 0.62265 -12.4875 19.469
2 4.98765 -11.304 20.2735
2 7.44333 -11.8294 19.3144
2 -11.3248 -7.57917 18.7638
1 -7.47339 -7.39044 19.1494
2 -3.74548 -7.47112 19.1982
2 0.110315 -7.57488 19.0133
3 3.57102 -7.37368 18.8321
2 7.38967 -7.52204 18.8688
1 11.1216 -7.95771 19.3984
1 -11.4121 -3.94584 18.865
3 -7.57988 -3.79875 18.9278
3 -3.69688 -3.68121 18.7424
3 -0.0776366 -3.68941 18.866
3 3.68092 -3.80544 19.0068
3 7.54185 -3.934 19.0418
2 13.0832 -3.71488 20.5949
2 -11.3094 -0.189928 18.8829
3 -7.63822 -0.0831305 19.0201
3 -3.86592 0.0482993 18.9459
2 -0.0381669 0.180052 18.926
3 3.79636 0.171226 19.0287
1 7.27907 0.135713 18.9685
2 11.2697 0.0394815 19.0506
2 -11.3036 3.71911 18.9411
2 -7.72631 3.91275 18.8579
3 -3.99311 3.79642 18.7963
1 -0.158288 3.81264 19.0726
1 3.7125 4.04207 19.2031
2 7.26696 3.90067 18.9092
1 11.4731 4.0902 18.9877
2 -11.1224 7.96709 19.2934
2 -7.7436 7.47246 18.8047
3 -4.03236 7.57302 18.9824
2 -0.259203 7.70695 18.9992
3 3.41956 7.74574 18.9674
3 7.32488 7.57703 18.8569
1 11.5096 8.24267 18.4188
1 -7.32932 11.5828 19.1024
2 -4.20762 11.3964 18.9636
2 -0.218451 11.5431 19.0816
2 3.88774 11.6939 19.0594
2 7.83015 11.6787 18.2375
2 0.0790584 -7.41568 22.7513
2 -3.8716 -3.89482 22.8593
2 0.0151168 -3.55205 22.8439
2 3.73292 -4.00105 22.5411
2 -7.42011 -0.154295 22.7526
2 -3.82363 -0.0530022 22.6928
1 -0.139568 0.0465944 22.5426
3 3.72753 0.193998 22.8381
1 6.3618 -0.173402 23.0755
2 -3.86567 3.78506 22.6504
2 -0.174578 4.01923 22.7294
1 4.36669 4.39407 21.9796
1 -0.315506 7.54489 22.5939
1 -5.9759 -5.9107 -22.7483
2 -2.12814 -5.6728 -22.8333
2 1.88562 -5.51114 -22.8165
1 5.64345 -5.74253 -22.6408
1 -5.74333 -1.98608 -22.6627
1 -1.93143 -1.93859 -22.8571
1 2.01116 -1.83184 -22.6762
2 6.0663 -1.91953 -22.4471
2 -4.80815 2.107 -23.4983
2 -2.27888 1.7956 -23.1133
2 2.35254 1.88686 -23.1806
2 6.25209 1.86325 -22.5732
1 -5.58659 5.99783 -22.7496
1 -1.83817 6.00793 -22.6518
2 2.24752 4.86926 -23.2068
2 5.72011 5.75167 -22.7524
1 -6.06646 -13.1695 -18.7074
2 -1.80014 -13.2327 -19.1949
1 2.10273 -13.2089 -18.9168
2 5.85848 -13.1873 -18.9617
1 -9.84204 -10.1513 -19.1027
2 -6.25428 -10.2102 -19.9477
2 -1.94531 -9.45909 -18.9177
2 1.98391 -9.38882 -18.8563
2 5.81655 -9.55133 -18.81
1 9.47665 -9.67436 -18.9542
2 -12.9327 -6.18151 -18.7154
1 -10.0255 -6.08261 -19.5846
3 -5.68282 -5.56359 -18.9485
1 -1.83126 -5.68452 -18.9938
2 1.94613 -5.59735 -18.9589
1 5.84959 -5.59007 -18.835