959
 Atoms. Timestep: 100
1 -0.119559 0.0305654 -0.0540871
1 2.85235 -0.0185571 -0.0720941
1 1.36577 2.48975 -0.0345366
1 -1.43766 2.63061 -0.0275356
1 -2.84322 0.0188539 -0.0739621
1 -1.39988 -2.48383 0.0187974
1 1.50184 -2.54076 -0.00332899
1 1.42565 -0.791694 2.23269
1 0.0482466 1.67209 2.26399
1 -1.40487 -0.767485 2.2854
1 0.0305896 -1.624 -2.38129
1 1.45245 0.813327 -2.37354
1 -1.39855 0.884188 -2.37189
1 5.64943 -0.0189116 -0.0689778
1 2.85921 4.84843 0.0719083
1 -2.79828 4.91219 0.0314591
1 -5.60641 -0.0128424 -0.0240894
1 -2.82192 -4.95742 -0.0494513
1 2.8646 -4.8705 -0.0411546
1 2.82165 -1.66311 4.56174
1 0.0132896 3.22641 4.64888
1 -2.70363 -1.64524 4.56312
1 0.0957009 -3.31043 -4.71886
1 2.76845 1.59595 -4.62436
1 -2.77096 1.6052 -4.58103
1 4.22135 2.41047 -0.094545
1 4.22812 -0.718537 2.21342
1 4.21145 0.772198 -2.32996
1 -0.0205615 4.90127 0.0620915
1 1.4132 4.09168 2.37491
1 2.83999 3.31114 -2.27128
1 -4.25405 2.39861 -0.0642032
1 -1.44204 4.0777 2.3035
1 -2.84078 3.25978 -2.29536
1 -4.20727 -2.44713 0.0531601
1 -4.16912 -0.858876 2.3199
1 -4.26458 0.825982 -2.33968
1 0.0298584 -4.8643 -0.0191521
1 -2.77466 -3.29222 2.2779
1 -1.37173 -4.08029 -2.28086
1 4.22091 -2.48992 0.0150982
1 2.85465 -3.19699 2.30008
1 1.42273 -4.05861 -2.30546
1 1.42712 0.849753 4.59346
1 0.0338151 -1.62662 4.50884
1 -1.32427 0.795382 4.57572
1 1.42833 -0.858721 -4.60379
1 -1.40571 -0.763513 -4.58523
1 0.00132223 1.66338 -4.66065
1 2.85429 1.64412 2.27266
1 0.0983226 3.34528 -2.27276
1 -2.83206 1.69678 2.34985
1 -2.81016 -1.63294 -2.34628
1 -0.00239707 -3.26169 2.29947
1 2.85549 -1.72908 -2.32538
1 8.35357 0.0321623 -0.0597582
1 4.12975 7.29748 0.00896912
1 -4.15398 7.21237 0.117659
1 -8.321 0.00581759 -0.0206532
1 -4.1572 -7.2605 -0.0329066
1 4.17483 -7.15073 0.0757683
1 4.13147 -2.41327 6.88111
1 0.0203135 4.71031 6.85265
1 -4.11268 -2.34882 6.75322
1 0.0220428 -4.84702 -6.87339
1 4.1529 2.31444 -6.79835
1 -4.16511 2.42381 -6.82444
1 6.9281 2.37789 -0.0297182
1 6.96612 -0.808136 2.25868
1 6.93033 0.837934 -2.336
1 1.35278 7.3633 0.101243
1 2.64429 6.49613 2.26104
1 4.1926 5.60663 -2.20766
1 -5.53756 4.73008 0.0209765
1 -2.73801 6.46405 2.25497
1 -4.25662 5.62417 -2.25878
1 -6.9502 -2.41558 0.0354255
1 -6.84953 -0.794629 2.26027
1 -6.99247 0.906344 -2.3444
1 -1.2881 -7.24412 -0.068924
1 -4.19243 -5.60405 2.26076
1 -2.73252 -6.44784 -2.29081
1 5.53515 -4.80557 0.042188
1 4.19431 -5.59195 2.25691
1 2.74599 -6.4099 -2.29811
1 2.71205 -0.0827478 6.82288
1 1.4042 -2.39534 6.83026
1 -1.3995 2.35279 6.87002
1 1.37505 -2.43248 -6.87033
1 -1.33449 -2.34657 -6.78189
1 1.39792 2.35836 -6.91273
1 5.51969 4.73429 0.0104531
1 5.63209 -1.65132 4.47914
1 5.60615 1.55914 -4.55795
1 -1.4021 7.26978 0.0430688
1 1.31865 5.67742 4.52196
1 4.0918 4.01528 -4.55471
1 -6.91129 2.40951 -0.069062
1 -1.39702 5.62731 4.56993
1 -4.12845 4.02364 -4.45804
1 -5.55308 -4.80565 0.0423534
1 -5.53692 -1.56663 4.52239
1 -5.54249 1.72362 -4.5402
1 1.35304 -7.17 -0.0505718
1 -4.21196 -3.93607 4.52374
1 -1.34271 -5.59637 -4.52643
1 6.95029 -2.41186 0.0630625
1 4.26406 -4.00001 4.51329
1 1.37232 -5.68281 -4.50099
1 1.36286 2.29874 6.95201
1 -1.344 -2.46618 6.74139
1 -2.67993 0.00248314 6.81387
1 2.75143 -0.0805915 -6.72859
1 -2.73571 -0.0326944 -6.79572
1 -1.40085 2.35302 -6.89852
1 5.64413 3.21486 -2.27291
1 0.0379502 6.51523 2.31546
1 -5.59326 3.27378 -2.29728
1 -5.5544 -3.20612 2.2627
1 0.0296137 -6.46951 -2.30715
1 5.67504 -3.28481 2.26674
1 0.0417815 -0.0265003 6.79739
1 0.0154069 0.00942835 -6.873
1 5.56127 1.57184 2.20519
1 1.40416 5.67429 -2.10233
1 -4.17464 4.03009 2.27113
1 -5.5202 -1.65033 -2.3156
1 -1.37351 -5.62342 2.19832
1 4.19286 -4.01982 -2.29712
1 4.18717 0.801667 4.49603
1 1.41329 3.95833 -4.53561
1 -2.75832 3.2162 4.55442
1 -4.15385 -0.818636 -4.53797
1 -1.34927 -4.04696 4.52506
1 2.84265 -3.25275 -4.61886
1 4.1797 3.97791 2.29459
1 -1.31042 5.65257 -2.21339
1 -5.52567 1.63668 2.22173
1 -4.08942 -4.00216 -2.25055
1 1.45442 -5.53742 2.28935
1 5.5714 -1.63908 -2.23757
1 2.7253 3.18978 4.58461
1 -1.34785 3.99629 -4.51382
1 -4.09899 0.823378 4.61063
1 -2.70902 -3.14226 -4.47553
1 1.46722 -3.96517 4.51218
1 4.20665 -0.895666 -4.48376
1 11.1507 0.0231497 0.0143644
1 5.64711 9.69629 -0.0390543
1 -5.676 9.61833 0.0379346
1 -11.0397 0.0109365 -0.0629464
1 -5.57001 -9.6165 -0.000416626
1 5.54814 -9.68781 -0.0259466
1 5.49112 -3.17965 9.15309
1 0.0538896 6.40457 9.12124
1 -5.54341 -3.14166 9.04719
1 -0.00859549 -6.47758 -9.0822
1 5.55164 3.18751 -9.04209
1 -5.55827 3.2139 -9.03875
1 9.69823 2.51072 -0.146515
1 9.66465 -0.7959 2.24089
1 9.69545 0.844054 -2.27429
1 2.81672 9.639 0.00909142
1 4.10216 8.84301 2.31195
1 5.56429 7.88102 -2.20904
1 -6.84873 7.06341 -0.0389479
1 -4.15468 8.91332 2.22041
1 -5.5492 8.01799 -2.2241
1 -9.66709 -2.44673 0.0174567
1 -9.62412 -0.821919 2.21842
1 -9.6957 0.926644 -2.26934
1 -2.63237 -9.55927 -0.125398
1 -5.5773 -7.94269 2.21359
1 -4.0335 -8.91208 -2.29071
1 6.93405 -7.17171 0.027055
1 5.59574 -7.96996 2.29276
1 4.05792 -8.72221 -2.28079
1 4.01825 -0.819068 9.06954
1 2.64171 -3.16316 9.13656
1 -1.33528 3.90424 9.1276
1 1.31487 -4.0044 -9.16758
1 -1.33757 -3.94596 -9.07092
1 2.75655 3.13191 -9.07709
1 8.3755 4.8165 -0.160404
1 8.35309 -1.66893 4.49826
1 8.30615 1.66309 -4.49316
1 -0.0434753 9.64444 0.116715
1 2.59427 8.14641 4.49787
1 5.68183 6.30481 -4.53709
1 -8.37226 4.79999 -0.0755835
1 -2.75701 8.07368 4.52091
1 -5.66062 6.46015 -4.41633
1 -8.27176 -4.82163 0.127107
1 -8.32793 -1.66328 4.46064
1 -8.32978 1.75646 -4.47774
1 0.0245139 -9.6919 -0.170998
1 -5.64509 -6.28479 4.52942
1 -2.67499 -8.11148 -4.45173
1 8.34076 -4.78752 0.0935709
1 5.67759 -6.35951 4.5422
1 2.70298 -8.15212 -4.51176
1 2.64575 1.51909 9.19741
1 0.00722011 -3.07914 9.13654
1 -2.68097 1.61795 9.17918
1 2.64648 -1.62645 -9.14823
1 -2.63394 -1.56053 -9.09582
1 0.00903492 2.98218 -9.15154
1 6.92719 7.13804 -0.000197722
1 6.86027 -2.38855 6.75477
1 6.93119 2.39813 -6.80044
1 -2.7561 9.62091 0.066323
1 1.33021 7.21975 6.74496
1 5.65289 4.79989 -6.73451
1 -9.65954 2.47807 -0.0953208
1 -1.34519 7.18397 6.80757
1 -5.54036 4.79053 -6.63053
1 -6.90423 -7.06504 0.0507083
1 -6.9442 -2.34929 6.77296
1 -6.92217 2.47197 -6.72327
1 2.69838 -9.43941 -0.0184748
1 -5.66352 -4.71368 6.74005
1 -1.33044 -7.14982 -6.60967
1 9.70822 -2.40121 0.0382951
1 5.68353 -4.78901 6.83397
1 1.36255 -7.20812 -6.68257
1 1.32288 3.89808 9.13899
1 -2.71129 -3.10913 8.96222
1 -4.00018 -0.740769 9.01668
1 4.04782 0.684576 -8.96674
1 -4.02657 0.770154 -9.06286
1 -2.78285 3.13666 -9.1133
1 8.42399 3.32461 -2.42451
1 1.34554 8.91673 2.2626
1 -7.09375 5.59381 -2.2633
1 -8.35021 -3.24568 2.29893
1 -1.28437 -8.94298 -2.27464
1 7.07121 -5.71192 2.28226
1 1.30171 -0.765117 9.21718
1 0.000124466 -1.59201 -9.27028
1 6.97254 4.047 -4.5059
1 -0.101811 8.11179 4.55207
1 -7.01546 4.13741 -4.45431
1 -6.98837 -3.93025 4.53657
1 -0.0337235 -8.14789 -4.44499
1 7.05099 -4.02937 4.49133
1 -1.37195 -0.820585 9.18691
1 -1.38801 0.75294 -9.18569
1 8.1896 1.60982 2.14158
1 2.76153 7.93486 -2.14796
1 -5.43709 6.36632 2.2149
1 -8.29546 -1.49982 -2.22208
1 -2.78001 -7.9244 2.14829
1 5.47769 -6.51063 -2.15499
1 6.8656 0.707087 4.42157
1 2.7948 6.33562 -4.37563
1 -4.06628 5.70278 4.49688
1 -6.83683 -0.787189 -4.46397
1 -2.77771 -6.30435 4.46091
1 4.13096 -5.64534 -4.43516
1 5.44073 -0.143169 6.72503
1 2.77771 4.71754 -6.77537
1 -2.67559 4.76028 6.69504
1 -5.41158 0.11787 -6.72829
1 -2.84108 -4.67919 6.7682
1 2.66912 -4.8607 -6.73547
1 6.96592 5.64119 -2.30331
1 -1.39428 8.92305 2.33956
1 -8.41688 3.2785 -2.33435
1 -6.99607 -5.54428 2.33538
1 1.3548 -8.88453 -2.27117
1 8.38904 -3.2466 2.30293
1 -0.0796912 1.51238 9.19631
1 1.32777 0.74883 -9.2355
1 6.81797 3.94042 2.2687
1 0.0232231 7.97806 -2.13688
1 -6.87749 4.00107 2.16297
1 -6.80494 -3.89738 -2.24907
1 0.0548473 -7.90494 2.20681
1 6.92982 -3.94262 -2.1544
1 5.46633 3.18233 4.47801
1 -0.0196408 6.36024 -4.45775
1 -5.47321 3.23259 4.51174
1 -5.55406 -3.18489 -4.48876
1 0.00992238 -6.39373 4.46262
1 5.52282 -3.2391 -4.48274
1 4.00807 2.3579 6.74481
1 0.00953261 4.73764 -6.6729
1 -4.08194 2.4409 6.71591
1 -4.05322 -2.35586 -6.74693
1 0.0176809 -4.72993 6.72709
1 4.11512 -2.40666 -6.77323
1 5.37446 6.42947 2.16766
1 -2.76201 7.93636 -2.13348
1 -8.19207 1.53361 2.11136
1 -5.43185 -6.38854 -2.2124
1 2.82468 -7.87044 2.16896
1 8.27035 -1.49785 -2.22575
1 3.96664 5.6458 4.44497
1 -2.70752 6.28179 -4.41473
1 -6.86376 0.78641 4.40278
1 -4.02929 -5.58745 -4.4902
1 2.85441 -6.28156 4.50813
1 6.78671 -0.797099 -4.48933
1 2.57439 4.75103 6.74023
1 -2.82504 4.62859 -6.71963
1 -5.39379 0.00702765 6.75541
1 -2.64951 -4.69214 -6.71919
1 2.78458 -4.65191 6.69184
1 5.42357 0.0171852 -6.72116
1 13.7586 0.0751177 0.034521
1 6.93555 11.9827 0.0701171
1 -6.8231 12.0363 -0.0308587
1 -13.698 -0.0786845 -0.0301766
1 -6.85958 -11.9005 0.0166275
1 6.78745 -11.9228 0.027068
1 6.94568 -3.97208 11.1374
1 -0.0139111 7.92152 11.2883
1 -7.03079 -3.93611 11.1415
1 -0.060753 -7.92674 -11.2164
1 6.80501 3.89529 -11.1348
1 -6.8729 4.12249 -11.189
1 12.6315 2.39165 0.0181651
1 12.6934 -0.889789 2.29308
1 12.5828 0.955182 -2.1993
1 4.25002 12.09 0.156916
1 5.52961 11.4095 2.26874
1 7.14532 10.4989 -2.27004
1 -8.40937 9.87499 -0.0822591
1 -5.53348 11.4703 2.26413
1 -6.99557 10.4687 -2.26976
1 -12.5368 -2.49944 0.0049263
1 -12.5341 -0.891468 2.21429
1 -12.5657 0.932638 -2.25532
1 -4.1429 -12.1662 -0.0642093
1 -7.06463 -10.3639 2.19872
1 -5.39536 -11.2578 -2.22513
1 8.44021 -9.8614 0.112765
1 7.08998 -10.504 2.24639
1 5.60804 -11.5257 -2.27949
1 5.54292 -1.68983 11.5342
1 4.40628 -4.00604 11.5831
1 -1.39233 5.65242 11.4901
1 1.24657 -5.55515 -11.3634
1 -1.51603 -5.72963 -11.6361
1 4.15677 3.89071 -11.4282
1 10.9965 4.77877 0.0659946
1 11.057 -1.47608 4.3655
1 11.0605 1.49501 -4.43076
1 1.42594 11.9404 -0.0461422
1 4.0901 10.3833 4.38963
1 6.88065 8.72434 -4.56179
1 -9.50471 7.20945 0.00250198
1 -4.21992 10.3469 4.48144
1 -6.88543 8.80249 -4.44809
1 -10.9831 -4.69549 0.0292001
1 -10.982 -1.52245 4.43784
1 -11.0405 1.53258 -4.49633
1 -1.3874 -11.8722 0.00819204
1 -6.81431 -8.77412 4.49713
1 -4.06138 -10.3837 -4.51276
1 9.57649 -7.24138 0.10034
1 7.03059 -8.71275 4.52131
1 4.18567 -10.4039 -4.39465
1 4.15275 0.684868 11.2048
1 1.39021 -4.01095 11.3055
1 -2.71932 3.20138 11.2422
1 2.78976 -3.30557 -11.3299
1 -2.6485 -3.31026 -11.1727
1 1.22312 3.8482 -11.3038
1 9.58038 7.1678 -0.0687143
1 9.53699 -2.31352 6.84016
1 9.64753 2.36592 -6.68253
1 -1.53628 11.9233 -0.0992384
1 2.58591 9.55923 6.76226
1 6.91154 7.10582 -6.81488
1 -11.0118 4.7012 -0.0633019
1 -2.60102 9.5105 6.86239
1 -6.90158 7.2077 -6.66346
1 -9.55002 -7.26493 -0.0509883
1 -9.64144 -2.32166 6.76626
1 -9.60136 2.35021 -6.70759
1 1.48722 -11.9071 0.0381088
1 -7.01205 -7.12934 6.73618
1 -2.66513 -9.51103 -6.77716
1 11.0089 -4.65175 0.0608279
1 7.00385 -7.10517 6.73099
1 2.71262 -9.61345 -6.73702
1 2.65379 3.14296 11.2949
1 -1.50931 -3.96907 11.1974
1 -4.22187 0.788908 11.1717
1 4.06518 -0.866618 -11.3054
1 -4.18227 -0.80061 -11.1621
1 -1.41791 3.96758 -11.2459
1 8.47275 9.84354 -0.0518145
1 8.4036 -3.27455 9.13764
1 8.41255 3.25161 -9.05917
1 -4.28696 12.2667 0.0238028
1 1.37419 9.04819 9.24496
1 7.06104 5.69448 -9.24784
1 -12.6181 2.36214 -0.0977102
1 -1.26654 9.09144 9.32638
1 -7.16832 5.71381 -9.15912
1 -8.44193 -9.7412 0.000406177
1 -8.44162 -3.15095 9.0782
1 -8.53785 3.42597 -9.22792
1 4.23831 -12.318 -0.00805123
1 -7.06897 -5.59075 9.0469
1 -1.38023 -9.00808 -9.25096
1 12.6584 -2.37078 0.0717025
1 7.06325 -5.65138 9.13751
1 1.26755 -9.04158 -9.21491
1 1.29766 5.50302 11.4176
1 -4.32972 -4.07174 11.5516
1 -5.61488 -1.73832 11.5604
1 5.52068 1.63085 -11.456
1 -5.64565 1.7639 -11.5061
1 -4.24247 4.10993 -11.3669
1 11.0931 3.29346 -2.30279
1 2.54115 11.213 2.39967
1 -8.3146 8.02871 -2.28016
1 -11.0622 -3.22048 2.27356
1 -2.61393 -11.3591 -2.39136
1 8.31059 -8.01511 2.3744
1 2.7459 -1.68737 11.3765
1 0.0366481 -3.194 -11.3778
1 9.84357 4.11201 -4.65078
1 1.25842 10.5811 4.64614
1 -8.50637 6.56691 -4.65775
1 -9.89286 -4.05431 4.69688
1 -1.29143 -10.5871 -4.70236
1 8.66382 -6.41917 4.56339
1 -0.075813 -1.73756 11.6728
1 -1.40313 -0.807902 -11.5339
1 8.33457 4.84753 -6.79938
1 0.0232303 9.53158 6.79745
1 -8.35686 4.76244 -6.76394
1 -8.43574 -4.77319 6.88884
1 0.0153239 -9.5225 -6.77626
1 8.34699 -4.77647 6.71576
1 -2.95759 -1.67668 11.3301
1 -2.81819 1.60798 -11.339
1 10.9366 1.58813 2.12955
1 4.26342 10.2156 -2.17764
1 -6.86822 8.67828 2.15937
1 -11.0941 -1.58356 -2.20155
1 -4.05878 -10.3906 2.12997
1 6.8724 -8.84722 -2.10604
1 9.53147 0.784629 4.33972
1 4.15052 8.6793 -4.43426
1 -5.50008 8.12423 4.5246
1 -9.5646 -0.699767 -4.41693
1 -4.14355 -8.64854 4.35528
1 5.45739 -8.05716 -4.45189
1 8.19769 -0.0736643 6.63174
1 4.13219 6.97861 -6.74911
1 -3.97228 7.18566 6.75127
1 -8.15556 0.157087 -6.73605
1 -4.20989 -7.03627 6.71185
1 4.02218 -7.22509 -6.69395
1 6.81058 -0.849764 9.06989
1 4.17549 5.43295 -9.15305
1 -2.60656 6.47629 9.031
1 -6.81683 0.905606 -9.03789
1 -4.19297 -5.429 9.0448
1 2.62529 -6.43927 -8.94065
1 9.85463 5.7667 -2.47051
1 -0.103066 11.4035 2.31264
1 -9.91344 5.71474 -2.34264
1 -9.89316 -5.71215 2.40153
1 0.049094 -11.4802 -2.37159
1 9.90608 -5.68886 2.28199
1 1.37848 0.806088 11.6263
1 1.38479 -0.906296 -11.5455
1 8.51307 6.61764 -4.67198
1 -1.45864 10.6828 4.61522
1 -9.90388 4.06816 -4.66956
1 -8.39806 -6.47179 4.55726
1 1.38904 -10.8032 -4.65003
1 9.92824 -3.95462 4.60214
1 -1.42913 0.680809 11.601
1 0.0234881 1.54636 -11.6279
1 9.51833 3.96197 2.1544
1 1.36852 10.3122 -2.17991
1 -8.18434 6.31884 2.18664
1 -9.58673 -3.91966 -2.14751
1 -1.35953 -10.2495 2.11114
1 8.20671 -6.3189 -2.15046
1 8.2181 3.13535 4.43595
1 1.46646 8.65633 -4.36802
1 -6.79542 5.69575 4.44918
1 -8.20359 -3.10325 -4.38346
1 -1.41922 -8.71081 4.37106
1 6.82883 -5.65673 -4.4196
1 6.68349 2.24467 6.66518
1 1.45372 7.06181 -6.64702
1 -5.45909 4.87216 6.67806
1 -6.73857 -2.28565 -6.78086
1 -1.45093 -7.09707 6.71712
1 5.40727 -4.83965 -6.7013
1 5.38786 1.46556 8.91775
1 1.42211 5.54747 -8.91397
1 -4.0846 3.96718 8.96736
1 -5.40037 -1.57468 -8.95701
1 -1.39245 -5.42945 8.98291
1 4.01346 -4.07455 -8.96675
1 8.18157 8.07923 -2.11249
1 -2.77636 11.246 2.25495
1 -11.1568 3.28441 -2.32914
1 -8.26455 -7.9742 2.34444
1 2.84944 -11.097 -2.13107
1 11.0743 -3.20671 2.37789
1 -0.0280662 3.05239 11.4019
1 2.70739 1.53996 -11.3067
1 8.15078 6.35139 2.2205
1 -1.36514 10.2937 -2.13511
1 -9.61296 4.00899 2.14063
1 -8.14107 -6.31118 -2.19494
1 1.39916 -10.2494 2.13603
1 9.62315 -3.93616 -2.18318
1 6.69626 5.5492 4.41619
1 -1.38447 8.71998 -4.36153
1 -8.2882 3.13689 4.29816
1 -6.76955 -5.64854 -4.45046
1 1.46514 -8.7002 4.32066
1 8.26066 -3.15734 -4.39896
1 5.36223 4.74682 6.6706
1 -1.39889 7.03683 -6.70727
1 -6.83316 2.34093 6.65912
1 -5.39148 -4.77327 -6.68588
1 1.47406 -7.09458 6.69013
1 6.78125 -2.32788 -6.71772
1 3.96762 3.9297 8.98768
1 -1.31579 5.45209 -9.01783
1 -5.3173 1.55565 8.9333
1 -3.9621 -3.94591 -8.87966
1 1.36527 -5.41881 8.90785
1 5.34062 -1.56636 -8.98248
1 6.81239 8.83372 2.22395
1 -4.13121 10.3979 -2.13171
1 -11.0059 1.61249 2.20356
1 -6.86162 -8.70517 -2.16257
1 4.13409 -10.3015 2.09707
1 11.0479 -1.56028 -2.21259
1 5.33203 7.94014 4.36394
1 -4.11497 8.65194 -4.35483
1 -9.64639 0.746138 4.37914
1 -5.44289 -8.02382 -4.38583
1 4.2243 -8.62479 4.36047
1 9.60422 -0.853335 -4.48409
1 4.01926 7.15658 6.6575
1 -4.05732 7.0636 -6.63937
1 -8.15694 -0.0588943 6.66603
1 -4.0043 -7.13755 -6.6774
1 4.17575 -7.0314 6.68369
1 8.19045 0.0587146 -6.68405
1 2.65669 6.38393 8.99522
1 -4.24726 5.54619 -8.89923
1 -6.72232 -0.811448 9.0798
1 -2.71831 -6.43149 -9.06431
1 4.02376 -5.46337 9.12641
1 6.78197 0.785051 -8.98319
1 13.5921 4.97861 -0.291363
1 13.6393 -1.9059 4.66401
1 13.6103 1.80305 -4.53964
1 2.4894 14.1958 0.316907
1 5.18851 12.7755 4.63787
1 8.45283 10.8085 -4.62581
1 -10.9855 9.37092 -0.21965
1 -5.12724 12.7246 4.56164
1 -8.44637 10.8486 -4.45409
1 -13.5707 -4.9619 0.0741722
1 -13.5937 -1.79814 4.32766
1 -13.7369 1.95461 -4.44153
1 -2.56092 -14.2068 -0.209896
1 -8.27446 -10.9463 4.5152
1 -5.08846 -12.7547 -4.46848
1 11.1073 -9.29181 0.213399
1 8.46428 -10.8145 4.55593
1 5.27733 -12.7174 -4.62446
1 4.97939 -0.0357546 13.5805
1 2.49688 -4.66421 13.5942
1 -2.64338 4.46595 13.4582
1 2.65137 -4.59343 -13.5282
1 -2.79867 -4.44486 -13.5069
1 2.40411 4.40676 -13.4902
1 12.2645 7.12429 -0.386874
1 12.226 -2.62395 6.62368
1 12.3362 2.63423 -6.66191
1 -0.0403858 14.1951 0.208899
1 3.90972 11.8697 6.60597
1 8.49715 9.35739 -6.79488
1 -12.2853 7.1392 -0.223927
1 -3.74787 11.9692 6.65304
1 -8.3659 9.47778 -6.57433
1 -12.3218 -7.18149 0.373043
1 -12.3247 -2.6722 6.54222
1 -12.4707 2.71887 -6.5675
1 -0.0775645 -14.2362 -0.256166
1 -8.39533 -9.4407 6.63054
1 -3.78899 -12.1595 -6.63947
1 12.3441 -7.07233 0.23479
1 8.60145 -9.36175 6.56348
1 3.91932 -12.0011 -6.59741
1 3.70765 2.11714 13.5169
1 -0.165571 -4.55205 13.541
1 -3.87325 2.14326 13.5526
1 3.86575 -2.29046 -13.7074
1 -3.948 -2.1691 -13.4231
1 -0.0633717 4.464 -13.6449
1 11.0036 9.31162 -0.299852
1 10.9392 -3.33969 8.74359
1 10.9743 3.24378 -8.70243
1 -2.6221 14.2536 0.322505
1 2.78287 11.2045 8.71699
1 8.39115 8.04503 -8.8926
1 -13.5566 4.96672 -0.168631
1 -2.60321 11.4121 8.79087
1 -8.3693 8.00271 -8.68764
1 -11.0419 -9.35739 0.17268
1 -11.0719 -3.27028 8.63978
1 -11.0865 3.29405 -8.58385
1 2.49918 -14.278 -0.285451
1 -8.35842 -7.81499 8.6888
1 -2.57807 -11.3085 -8.68915
1 13.5707 -4.88014 0.199469
1 8.47296 -7.98426 8.6775
1 2.65898 -11.2398 -8.67129
1 2.63506 4.44461 13.5454
1 -2.62961 -4.46796 13.46
1 -5.1828 -0.0975369 13.5164
1 5.14078 -0.0678962 -13.4777
1 -5.30131 -0.0372419 -13.4238
1 -2.60622 4.55316 -13.4499
1 13.7617 3.38904 -2.36986
1 3.9144 13.5936 2.35939
1 -9.84741 10.2142 -2.28896
1 -13.7533 -3.38461 2.27886
1 -3.97363 -13.6469 -2.33401
1 9.85629 -10.224 2.3424
1 3.88706 -2.43478 13.6686
1 -0.0515288 -4.68738 -13.5582
1 12.6253 4.26652 -4.59606
1 2.49365 13.1366 4.66576
1 -10.0491 8.79009 -4.58814
1 -12.6468 -4.30849 4.52422
1 -2.51882 -13.1916 -4.66016
1 10.0862 -8.77913 4.60471
1 1.26194 -2.37783 14.0027
1 -1.32659 -2.35192 -13.8696
1 11.3905 5.10149 -6.73207
1 1.36439 12.4903 6.78173
1 -10.1096 7.36122 -6.6641
1 -11.2647 -5.15174 6.75284
1 -1.21551 -12.5833 -6.8087
1 10.1121 -7.26337 6.81199
1 -1.3419 -2.24942 13.9283
1 -2.58923 0.0208669 -13.7564
1 9.83345 5.64249 -8.80695
1 0.140524 11.3258 8.75781
1 -9.94637 5.73991 -8.73581
1 -9.84524 -5.60823 8.99986
1 0.0667936 -11.3018 -8.72014
1 9.76477 -5.63227 8.86401
1 -4.01962 -2.38367 13.6937
1 -4.07573 2.27254 -13.4889
1 13.6133 1.64394 2.27391
1 5.53093 12.494 -2.1121
1 -8.12647 11.1497 2.15006
1 -13.7188 -1.49349 -2.2874
1 -5.58564 -12.547 2.19026
1 8.19135 -11.2672 -2.18658
1 12.5847 0.678449 4.53012
1 5.65596 11.1746 -4.47704
1 -6.90932 10.7591 4.53151
1 -12.587 -0.617806 -4.51327
1 -5.67877 -11.2806 4.48458
1 6.92906 -10.4838 -4.47941
1 11.0958 -0.139979 6.81146
1 5.47858 9.35971 -6.78581
1 -5.41947 9.58911 6.83413
1 -11.0274 0.0478182 -6.67046
1 -5.55114 -9.43727 6.61931
1 5.41361 -9.65166 -6.75157
1 9.81969 -0.906753 9.18902
1 5.70003 8.07823 -9.34034
1 -3.98401 8.88358 9.10848
1 -9.73348 0.97131 -9.05467
1 -5.59361 -7.88082 8.99519
1 4.00267 -8.93718 -9.08843
1 8.14292 -1.60737 11.1669
1 5.49315 6.17217 -11.2916
1 -2.59277 8.04541 11.2329
1 -8.17973 1.73944 -11.1461
1 -5.54387 -6.27147 11.1906
1 2.55321 -7.86857 -11.1474
1 12.6086 5.7753 -2.6105
1 1.22652 13.8077 2.51598
1 -11.3745 8.12798 -2.5037
1 -12.6007 -5.76659 2.49645
1 -1.33417 -13.8872 -2.583
1 11.316 -8.06648 2.44465
1 2.41581 -0.165165 13.8705
1 1.28974 -2.36549 -13.8963
1 11.5168 6.72649 -4.73544
1 0.0616635 13.3188 4.71919
1 -11.4877 6.63637 -4.53492
1 -11.3835 -6.58657 4.6181
1 -0.00440618 -13.4173 -4.67354
1 11.4857 -6.68929 4.64887
1 -0.069246 -0.135647 14.0962
1 -0.0607226 -0.0793488 -13.9004
1 10.0435 7.30561 -6.87059
1 -1.16073 12.4408 6.81315
1 -11.3239 5.12795 -6.66981
1 -9.8937 -7.26046 6.68693
1 1.30422 -12.5685 -6.79372
1 11.352 -5.07181 6.71709
1 -2.64584 -0.0807649 14.0134
1 -1.41454 2.17957 -13.8724
1 12.6691 4.1013 2.08275
1 2.92616 12.9074 -2.11021
1 -9.68057 9.03869 2.0673
1 -12.5652 -3.89676 -2.2433
1 -2.88236 -12.8134 2.18541
1 9.75623 -8.93469 -2.22625
1 11.0258 3.05399 4.24813
1 2.80996 11.0236 -4.33374
1 -8.1162 8.06244 4.31116
1 -10.903 -3.03327 -4.41406
1 -2.82575 -11.0316 4.29004
1 8.15549 -7.99021 -4.26579
1 9.61755 2.16316 6.60722
1 2.80758 9.33078 -6.64578
1 -6.729 7.20111 6.69123
1 -9.46281 -2.20359 -6.58054
1 -2.88733 -9.3834 6.5885
1 6.74765 -7.20711 -6.60508
1 8.06912 1.46079 8.9245
1 2.85806 7.79649 -8.92345
1 -5.26469 6.27812 8.99714
1 -8.12519 -1.43298 -8.91388
1 -2.65192 -7.7778 8.96456
1 5.33123 -6.35933 -8.98949
1 6.8072 0.723961 11.5689
1 2.75756 6.23971 -11.4094
1 -4.08434 5.70582 11.4339
1 -6.84572 -0.647896 -11.291
1 -2.95032 -6.34985 11.5589
1 4.00809 -5.67749 -11.4345
1 11.4462 8.06188 -2.66261
1 -1.35376 13.7885 2.55884
1 -12.7242 5.79189 -2.46898
1 -11.1589 -8.0695 2.52655
1 1.30351 -13.9847 -2.59727
1 12.5853 -5.69723 2.52247
1 1.18375 2.23449 13.9405
1 2.49727 0.00382838 -13.8684
1 10.1199 8.8146 -4.73422
1 -2.53753 13.116 4.69908
1 -12.7146 4.33183 -4.58806
1 -9.90188 -8.81044 4.58573
1 2.56231 -13.312 -4.70283
1 12.5788 -4.25375 4.59744
1 -1.31508 2.1204 13.8566
1 1.29873 2.12895 -13.961
1 10.9315 6.33842 2.09682
1 -0.00435597 12.8829 -2.14019
1 -10.8862 6.37573 2.14593
1 -11.0066 -6.33886 -2.06386
1 0.0618405 -12.7192 2.12339
1 10.9353 -6.33563 -2.1763
1 9.55741 5.52655 4.33681
1 -0.0055178 11.1347 -4.23104
1 -9.59364 5.51009 4.33605
1 -9.513 -5.54109 -4.2508
1 0.0532799 -11.0042 4.20514
1 9.58433 -5.53637 -4.38732
1 7.94959 4.55671 6.57543
1 -0.0726145 9.27768 -6.56716
1 -8.06418 4.76051 6.48792
1 -7.99835 -4.65291 -6.5117
1 0.0386863 -9.27807 6.49879
1 8.05671 -4.6588 -6.57079
1 6.69327 3.78161 9.07664
1 -0.0889842 7.76258 -8.90631
1 -6.65998 3.80597 8.95502
1 -6.64136 -3.86695 -8.90731
1 0.0264072 -7.73783 8.92241
1 6.62907 -3.84684 -9.02602
1 5.37235 3.08618 11.3911
1 -0.0272835 6.18444 -11.244
1 -5.45118 3.10397 11.4235
1 -5.36481 -3.2335 -11.2722
1 -0.0490258 -6.25374 11.2368
1 5.43138 -3.12166 -11.4413
1 9.81913 10.0775 -2.46199
1 -3.96186 13.684 2.48201
1 -13.8491 3.39346 -2.27566
1 -9.69868 -10.2532 2.34245
1 3.87035 -13.5102 -2.42471
1 13.7474 -3.31323 2.43262
1 0.0225922 4.56498 13.6543
1 3.88915 2.18484 -13.5788
1 9.63152 8.88041 2.11086
1 -2.90256 12.9728 -2.10593
1 -12.4978 3.99633 2.13038
1 -9.75139 -9.02929 -2.22942
1 2.88826 -13.0648 2.19877
1 12.6036 -3.89216 -2.09443
1 8.06649 7.94475 4.37904
1 -2.90235 11.1471 -4.36184
1 -11.0563 3.18244 4.40914
1 -8.21583 -8.01053 -4.37335
1 2.81136 -11.0323 4.34207
1 10.9283 -3.11289 -4.32551
1 6.66226 7.11715 6.67067
1 -2.89711 9.41871 -6.53788
1 -9.5113 2.25075 6.62555
1 -6.63365 -7.25286 -6.61348
1 2.77973 -9.40401 6.67254
1 9.56072 -2.24619 -6.68028
1 5.31467 6.35443 8.96363
1 -2.7601 7.69695 -8.8682
1 -8.0963 1.52277 8.90297
1 -5.2755 -6.38115 -8.97844
1 2.84316 -7.84411 8.88657
1 8.14211 -1.52277 -8.9517
1 3.99947 5.52327 11.2937
1 -2.87413 6.30818 -11.5116
1 -6.83342 0.728785 11.4169
1 -4.13172 -5.70993 -11.549
1 2.90646 -6.33902 11.4009
1 6.86401 -0.758804 -11.3677
1 8.17244 11.0905 2.23574
1 -5.49892 12.7525 -2.2952
1 -13.6247 1.50005 2.24083
1 -7.98413 -11.0696 -2.21313
1 5.48277 -12.5783 2.32288
1 13.7099 -1.39794 -2.21674
1 6.803 10.4884 4.43098
1 -5.72787 11.3098 -4.47117
1 -12.502 0.756999 4.45967
1 -6.84027 -10.5989 -4.53979
1 5.69656 -11.3021 4.49737
1 12.7422 -0.677536 -4.62404
1 5.31357 9.50659 6.60151
1 -5.61011 9.5435 -6.69474
1 -11.0848 -0.0186177 6.69389
1 -5.3487 -9.73968 -6.85307
1 5.576 -9.38006 6.70235
1 11.0259 0.0538199 -6.64564
1 3.96602 8.75571 9.07122
1 -5.68155 7.96959 -8.97494
1 -9.82035 -0.773938 9.03601
1 -4.03429 -8.97922 -9.13145
1 5.61889 -7.94906 9.01727
1 9.67972 0.950471 -9.08031
1 2.53624 7.88455 11.251
1 -5.51689 6.31196 -11.1492
1 -8.16101 -1.50907 11.1632
1 -2.74948 -7.96982 -11.2354
1 5.59235 -6.2767 11.2016
1 8.151 1.59401 -11.1602
1 13.4893 3.18012 4.48094
1 4.03006 13.2516 -4.40643
1 -9.50126 10.2345 4.4139
1 -13.5058 -3.02929 -4.54278
1 -4.0746 -13.2867 4.45608
1 9.6205 -10.2193 -4.49143
1 12.2715 2.28319 6.70494
1 4.08308 11.6479 -6.65788
1 -8.07119 9.47693 6.67057
1 -12.1423 -2.2401 -6.74106
1 -4.05818 -11.723 6.68954
1 8.11336 -9.47642 -6.60982
1 10.8136 1.54843 8.8129
1 3.97665 10.1999 -8.88743
1 -6.75293 8.74426 8.95748
1 -10.7877 -1.51626 -8.7956
1 -4.11733 -10.0799 8.76882
1 6.78204 -8.70081 -8.78471
1 9.3801 0.817237 11.1178
1 3.94158 8.54843 -11.098
1 -5.53759 7.80038 11.1861
1 -9.47152 -0.770047 -10.9205
1 -4.0578 -8.63128 11.0295
1 5.36438 -7.85793 -11.0588
1 12.1732 5.57049 4.42351
1 1.3419 13.407 -4.32058
1 -10.8451 7.93401 4.26428
1 -12.1837 -5.44546 -4.32897
1 -1.33524 -13.3186 4.43375
1 11.0112 -7.72895 -4.36999
1 10.707 4.60246 6.57665
1 1.28222 11.6279 -6.60965
1 -9.42478 7.0069 6.48091
1 -10.6987 -4.64177 -6.57626
1 -1.30478 -11.5496 6.50158
1 9.47437 -6.97136 -6.62015
1 9.37809 3.74556 8.71268
1 1.23923 10.0674 -8.79604
1 -8.0827 6.17959 8.72152
1 -9.29992 -3.94712 -8.76859
1 -1.28882 -10.13 8.67082
1 8.01466 -6.16962 -8.74532
1 8.0695 3.12199 11.1685
1 1.30432 8.56928 -11.1125
1 -6.70732 5.3905 11.0744
1 -8.07069 -3.05088 -11.0481
1 -1.34487 -8.60502 11.0811
1 6.76282 -5.43683 -11.1705
1 10.8954 7.78566 4.35643
1 -1.29454 13.3714 -4.35589
1 -12.2073 5.6429 4.37469
1 -10.9224 -7.70895 -4.27232
1 1.29317 -13.3507 4.37043
1 12.3283 -5.38159 -4.36165
1 9.43994 6.86516 6.57374
1 -1.35991 11.559 -6.47887
1 -10.7228 4.71724 6.59656
1 -9.34392 -6.9267 -6.60561
1 1.33247 -11.7083 6.46527
1 10.7764 -4.68681 -6.69322
1 8.06817 6.07051 8.78236
1 -1.37762 10.0339 -8.8041
1 -9.41113 4.0212 8.81622
1 -8.02415 -6.25075 -8.67991
1 1.32446 -10.0084 8.74449
1 9.33972 -3.9468 -8.78146
1 6.6686 5.35639 11.1458
1 -1.42205 8.63802 -11.271
1 -8.11618 3.19467 11.0755
1 -6.79296 -5.48053 -11.1419
1 1.33758 -8.4754 11.1017
1 8.16731 -3.16494 -11.1234
1 9.50642 10.1701 4.46107
1 -4.03197 13.3779 -4.56491
1 -13.6262 3.28334 4.47892
1 -9.49195 -10.221 -4.56598
1 4.07608 -13.344 4.61537
1 13.6149 -3.04772 -4.3663
1 8.06646 9.38616 6.78304
1 -4.16364 11.8145 -6.63643
1 -12.2521 2.42839 6.6532
1 -8.03122 -9.45332 -6.7156
1 4.16917 -11.7349 6.67008
1 12.2777 -2.44214 -6.64711
1 6.66897 8.71822 8.76958
1 -4.08941 10.1366 -8.89592
1 -10.9136 1.63285 8.82523
1 -6.72043 -8.6893 -8.83853
1 4.1397 -10.2678 8.86492
1 10.8499 -1.5519 -8.85506
1 5.36043 7.80196 11.0733
1 -4.04432 8.56637 -10.9398
1 -9.52074 0.861223 10.942
1 -5.51629 -7.87906 -11.1746
1 4.05378 -8.67473 11.0156
1 9.54147 -0.851475 -11.1184
