862
 Atoms. Timestep: 100
1 0.818298 0.933087 0.578122
1 -0.714163 -0.802839 -0.683797
1 -0.692134 -0.800017 2.01764
1 2.48584 -0.7718 -0.7764
1 -0.978739 2.55945 -0.474527
1 1.08445 -2.44386 0.630965
1 -2.50221 0.720507 0.668446
1 0.776669 0.880313 -2.30949
1 2.52355 -0.671107 1.97033
1 -0.876049 2.20845 2.16718
1 2.37917 2.56258 -0.882016
1 -2.48206 -2.32387 0.628066
1 0.832137 -2.25742 -2.40191
1 -2.1192 0.977636 -2.14773
1 2.43383 2.19381 2.19076
1 0.779425 0.755465 3.69132
1 4.15294 0.967673 0.502833
1 0.864278 3.84993 0.851265
1 -0.68002 -3.86736 -0.715367
1 -3.79846 -0.73144 -1.02708
1 -0.878162 -0.687803 -3.7355
1 -2.10313 -2.47118 -2.26788
1 0.874474 -2.0543 3.79585
1 -2.04984 0.657551 3.95195
1 3.812 -2.56984 0.549065
1 -2.64384 3.96783 1.06451
1 4.03728 0.995672 -2.27917
1 0.45755 3.90961 -2.14918
1 -0.752646 -3.65049 2.07844
1 -3.78754 -0.639749 2.49357
1 2.2369 -4.12569 -1.05283
1 -3.96294 2.35831 -0.82556
1 2.56106 -0.603875 -3.56929
1 -0.686732 2.37919 -3.9927
1 2.42818 -3.98177 2.43557
1 -3.66486 2.03837 2.5336
1 -1.86625 -2.20684 3.88164
1 2.21589 2.4399 -3.82836
1 3.86639 -2.52533 -2.3188
1 -2.22735 3.96543 -2.39359
1 3.61926 0.71739 3.9714
1 0.688345 3.59634 3.76301
1 3.96362 3.8218 0.766865
1 -0.528035 -0.519702 5.57513
1 5.33322 -0.829608 -1.01825
1 -1.11495 5.32507 -0.487906
1 0.818731 -5.39352 0.781145
1 -5.36025 0.762367 0.958218
1 0.948084 0.639242 -5.13097
1 -4.01789 -3.68445 -1.07398
1 -0.786456 -3.98265 -3.99538
1 -3.55854 -0.684247 -3.57291
1 2.36163 -0.685904 5.70575
1 -0.719432 2.34011 5.63176
1 5.11451 -0.793989 2.41024
1 -0.762176 5.33099 2.19238
1 3.62634 -2.28899 3.95472
1 -2.34407 3.99456 3.68822
1 5.63552 2.51575 -0.897114
1 2.55474 5.26458 -1.00035
1 4.10029 3.66193 -2.56097
1 -3.84145 -3.45152 2.4833
1 -2.70016 -5.22979 0.810079
1 -5.07306 -2.12186 0.665534
1 2.07797 -4.157 -3.75442
1 -3.77568 2.37411 -3.67918
1 0.549285 -5.65272 -2.28833
1 -5.49427 0.716089 -2.42092
1 0.767376 -2.17479 -5.16001
1 -2.4253 0.779386 -5.41743
1 2.09153 2.24263 5.5806
1 5.29514 2.1929 2.56302
1 2.43336 5.07879 2.53368
1 -2.3518 -5.28672 -2.28565
1 -5.60661 -2.03868 -2.46106
1 -2.28469 -2.03463 -5.49442
1 3.78772 3.49216 4.09344
1 -0.657153 -4.01631 5.38966
1 -3.73655 -1.00887 5.25306
1 0.511422 -5.48429 3.56488
1 -5.57617 0.796586 3.86228
1 5.60956 -4.2412 -0.469449
1 -3.85953 5.28854 -0.841756
1 3.73189 -5.4345 0.614462
1 -5.20872 3.6933 1.12819
1 5.49668 -0.92504 -3.96428
1 -0.759585 5.33367 -4.01865
1 3.68323 0.946581 -5.48647
1 0.889737 4.12676 -5.58174
1 -3.75242 -3.7398 -3.81531
1 0.87637 0.885562 7.25452
1 6.70522 0.919822 0.899162
1 1.05229 6.43585 0.693223
1 2.03182 -3.92562 5.28658
1 -3.73478 2.59961 5.34125
1 5.28843 -3.79813 2.38354
1 -4.20997 5.80802 2.64411
1 5.50284 2.21879 -4.20505
1 2.28215 5.13265 -3.60811
1 -2.22618 -5.22318 3.55131
1 -5.55523 -2.32104 4.03205
1 4.11093 -5.35472 -2.38147
1 -5.49523 4.06208 -2.65828
1 3.41002 -2.377 -5.16417
1 -2.42171 3.56923 -5.60512
1 -1.07403 -6.71466 -0.523634
1 -6.92607 -0.872545 -0.498617
1 -0.507344 -0.594612 -6.90912
1 0.722232 -2.32438 6.97062
1 -2.47353 0.833384 6.73619
1 6.6885 -2.14497 0.783706
1 -2.57288 7.0784 1.0726
1 7.01089 0.938589 -2.6674
1 0.727868 6.81943 -2.30722
1 -1.15936 -7.03124 2.1551
1 -6.89674 -0.994921 2.26078
1 2.46754 -7.0164 -1.08382
1 -6.54951 2.42013 -0.701528
1 2.21995 -0.696783 -6.93274
1 -0.542696 2.11963 -6.58371
1 5.32504 -0.686269 5.29682
1 -0.760235 5.08739 5.40722
1 5.2483 5.44028 -1.049
1 -2.02351 -2.38068 6.7768
1 3.93915 -5.29755 4.17109
1 -5.25001 3.79775 3.77659
1 6.9113 -2.70595 -2.00593
1 -2.09181 6.92006 -2.49706
1 -3.54228 -3.73861 5.20094
1 3.8466 3.65943 -5.55956
1 2.45526 -6.77356 2.47975
1 -7.10859 2.58059 2.67501
1 5.4764 -3.61873 -4.04183
1 -3.76231 5.33673 -4.05594
1 2.07483 2.33578 -7.04421
1 -5.26621 -5.35224 0.845907
1 0.297981 -5.8509 -5.58141
1 -5.12788 0.65493 -5.14494
1 5.53425 2.10628 5.28253
1 2.32578 5.08316 5.47939
1 3.96587 1.00185 7.10454
1 0.753925 3.91357 7.20319
1 5.20574 5.19548 2.75699
1 7.14916 0.732212 3.74946
1 0.755975 6.52446 3.90788
1 6.65773 3.88108 1.07614
1 3.85437 6.71014 1.01251
1 -3.96045 -6.98036 -0.747509
1 -6.84924 -3.79995 -0.886071
1 -0.970899 -7.18021 -3.80299
1 -7.17724 -0.556156 -4.04754
1 -5.25677 -5.49266 -2.5328
1 -0.860663 -3.79376 -6.67887
1 -4.02719 -0.763985 -7.146
1 -2.31949 -5.63233 -5.43853
1 -5.19968 -2.04219 -5.18843
1 3.90833 -2.6181 6.68507
1 -2.31328 4.07165 7.05761
1 7.06768 -1.91625 3.6635
1 -2.14388 6.86122 3.8312
1 6.82837 3.93078 -2.74522
1 3.47632 7.26279 -2.56626
1 -4.04681 -7.25256 2.25366
1 -6.61961 -3.60337 2.11696
1 2.18858 -7.01494 -3.90655
1 -6.92334 2.24535 -4.02698
1 1.99269 -4.06759 -6.56149
1 -4.14189 2.03231 -7.16712
1 -0.920321 -0.52252 8.21925
1 5.76688 -3.71132 5.02277
1 -3.88096 5.52041 5.27727
1 7.99092 -0.633392 -0.800044
1 -0.698315 8.06243 -0.485634
1 5.11069 5.49401 -3.98304
1 -5.33956 -5.29728 3.75099
1 0.814495 -8.02893 0.848049
1 -8.12758 0.917887 0.987642
1 3.95361 -5.39922 -5.08757
1 -5.29187 3.84767 -5.51962
1 0.512435 1.11202 -8.69744
1 4.04482 3.61547 7.02933
1 7.1536 3.68457 3.89148
1 3.77692 6.98574 3.8988
1 2.52953 -0.919085 8.32548
1 -0.867199 2.38808 8.51864
1 8.48457 -0.563096 1.95116
1 -0.443813 8.20752 2.24091
1 8.23596 2.49907 -0.868391
1 2.35035 8.2011 -0.485249
1 1.05561 -5.59394 7.01721
1 -5.09529 0.715285 6.58255
1 7.11136 -5.84534 1.14621
1 -5.23749 7.02353 0.572642
1 -0.836555 -6.97183 5.30657
1 -7.05215 -0.789033 5.52418
1 7.08153 0.458206 -5.49816
1 1.10437 6.79035 -5.38702
1 5.41133 -7.01612 -0.831752
1 -6.67489 5.0927 -0.567213
1 4.98522 -0.924457 -6.81069
1 -1.05143 5.47449 -6.81433
1 -2.48577 -8.65178 0.643171
1 -8.5584 -2.56267 0.714352
1 0.508811 -8.31469 -2.10895
1 -8.19542 0.923142 -2.02592
1 0.664748 -2.48474 -8.26081
1 -2.17788 0.84406 -8.35583
1 -3.64315 -7.16513 -3.75749
1 -6.88622 -3.7264 -3.85446
1 -3.81855 -3.67279 -6.72487
1 2.30989 2.27426 8.74584
1 8.59428 2.39788 2.1169
1 2.11853 8.24696 2.38154
1 2.06263 -6.87204 5.09016
1 -6.78519 2.34349 5.52414
1 -2.35475 -5.67693 6.86818
1 -5.49848 -2.53046 6.6702
1 5.21738 -6.70345 2.49059
1 -6.82597 5.43554 2.33287
1 6.90666 -5.55248 -2.52996
1 -5.40203 6.70826 -2.19688
1 5.69226 2.2428 -6.88071
1 2.5301 5.39948 -7.05344
1 7.04083 -2.2976 -5.79297
1 -2.31377 7.14987 -5.11269
1 -2.1704 -8.60868 -1.95448
1 -8.40462 -2.07183 -2.29417
1 -2.11259 -2.26099 -8.31564
1 5.38703 5.32053 5.39417
1 -0.618842 -4.16931 8.2174
1 -3.77086 -1.0422 8.21062
1 8.40441 -4.38212 -0.546821
1 -3.52527 8.40618 -0.962455
1 8.12639 -1.1247 -3.72704
1 -0.37327 8.56275 -4.26703
1 0.499369 -8.45372 3.57205
1 -8.50249 0.690393 4.00149
1 3.78369 -8.31752 0.742148
1 -8.46673 3.76367 0.75286
1 3.77865 0.963774 -8.36008
1 0.308534 3.78204 -8.34896
1 -5.20563 -5.45482 -5.27758
1 2.4646 -3.78085 8.49066
1 -3.83064 2.46138 8.29408
1 4.01406 -5.19201 6.84075
1 -5.39586 4.22371 7.13536
1 8.12815 -3.71587 2.28991
1 -4.14604 8.63908 2.68103
1 7.43393 -5.68676 3.88634
1 -5.85607 7.67682 4.43561
1 8.82185 2.71635 -4.0466
1 2.31182 9.04428 -4.22992
1 7.13609 4.30639 -5.40461
1 3.77102 7.25842 -5.23153
1 -3.64076 -7.08892 4.96515
1 -7.2989 -4.4439 5.70171
1 -2.40812 -8.87497 3.69577
1 -8.18474 -2.59448 3.93577
1 5.73135 -7.20734 -4.4424
1 -7.15699 5.61047 -4.17374
1 4.04602 -8.4881 -2.77181
1 -8.27327 3.66655 -2.2804
1 5.02762 -3.87327 -6.92299
1 -3.6635 5.57906 -6.82836
1 3.36831 -2.57461 -8.34137
1 -2.4265 3.79663 -8.53053
1 6.80078 0.796766 7.05138
1 0.703317 6.76163 6.91395
1 6.57495 6.55301 0.942243
1 -6.87621 -6.61673 -0.930699
1 -0.92078 -7.26591 -7.60578
1 -6.77553 -0.61168 -6.87849
1 5.26371 -0.934406 8.25455
1 -0.970652 5.88267 8.94167
1 0.706646 0.402272 9.94666
1 8.40754 -0.795874 5.70749
1 -0.685114 8.35696 5.38667
1 6.83037 -2.46587 6.97154
1 -2.21878 6.77609 6.88299
1 8.15593 5.31352 -0.771041
1 5.3512 8.1996 -0.775285
1 9.85621 0.838949 0.238946
1 0.890707 9.93177 0.838933
1 6.89434 6.98184 -2.43074
1 -3.8375 -3.9328 8.14346
1 4.16945 -8.23252 4.28098
1 -8.54207 4.17052 4.28158
1 8.35571 -3.86401 -4.0564
1 -4.05968 8.43991 -3.63444
1 4.1395 3.91372 -8.3513
1 -6.75636 -7.06086 2.3926
1 -0.382551 -9.99833 -0.404451
1 -9.7344 -0.505124 -0.346718
1 -5.94912 -8.61348 0.465211
1 -8.15186 -5.25396 0.889743
1 2.33506 -6.66107 -6.67348
1 -6.8555 2.21017 -6.76651
1 0.61771 -8.5807 -5.90723
1 -8.77122 0.937247 -5.66022
1 -0.73805 -0.793562 -10.0211
1 0.611225 -5.31554 -8.47785
1 -5.83341 0.582966 -8.88436
1 5.70898 2.55593 8.73977
1 2.62323 5.57686 8.16928
1 8.70076 1.88612 5.6971
1 1.95358 8.44291 5.10519
1 8.59839 5.25417 2.02379
1 5.54393 8.64097 1.97454
1 0.759071 -2.25462 9.75989
1 -2.36372 0.876052 9.95659
1 9.68237 -2.23527 0.438785
1 -2.13966 9.76933 0.823535
1 9.70779 0.61621 -2.38005
1 0.813178 9.55707 -2.08141
1 5.88498 -6.83977 5.69389
1 -6.79384 5.55892 5.43494
1 5.26349 5.6842 -6.70653
1 -4.97182 -5.47229 6.3823
1 6.78925 -5.22289 -5.71743
1 -5.47432 6.95707 -5.53841
1 -0.848956 -10.1152 2.10895
1 -9.82132 -0.881295 2.35472
1 2.21496 -9.82608 -0.879363
1 -9.98885 2.10445 -0.580892
1 2.09699 -0.740249 -9.70603
1 -1.24382 2.22149 -10.4948
1 -5.51202 -8.52 -2.24685
1 -8.55463 -5.46662 -2.70035
1 -2.0916 -8.64959 -5.58723
1 -8.64605 -1.94378 -5.74155
1 -2.31124 -5.13428 -8.39073
1 -5.35287 -2.37407 -8.70633
1 7.02147 3.63026 6.77562
1 3.71195 7.196 6.54599
1 7.16863 6.94353 3.42627
1 -1.99049 -2.3581 9.51178
1 9.9014 -2.47393 -2.15359
1 -1.89978 9.73104 -2.53205
1 2.46795 -9.59466 2.43401
1 -9.83567 2.37764 2.51365
1 2.34844 2.56976 -9.94775
1 -6.95477 -7.15341 -3.74474
1 -3.57694 -7.08242 -7.14109
1 -6.60956 -3.51876 -6.64727
1 4.14647 0.6622 10.0288
1 1.01713 4.35283 9.85377
1 9.91605 0.419512 3.963
1 0.612527 10.2904 3.95927
1 10.2929 3.94446 0.522155
1 3.64909 10.0935 0.824016
1 5.2664 -3.69022 8.77005
1 -3.75047 5.3975 8.84782
1 8.52347 -3.52715 5.13673
1 -3.52169 8.44711 5.4409
1 8.73961 5.40678 -3.57622
1 5.13285 8.95322 -3.54191
1 -5.20669 -8.99581 3.84894
1 -8.42426 -5.48314 3.66547
1 3.62387 -8.60779 -5.44107
1 -8.78834 3.80058 -5.06191
1 3.51651 -5.14686 -8.75031
1 -5.14422 3.92621 -8.41129
1 -4.09318 -10.0706 -0.829144
1 -9.90816 -4.22237 -0.984275
1 -0.657148 -10.1108 -3.82194
1 -10.0145 -0.587549 -3.83359
1 -0.725817 -3.73349 -10.2753
1 -3.52612 -0.870025 -9.96577
1 3.48959 -2.1547 10.3437
1 -2.48498 3.79114 10.2247
1 9.89227 -2.22219 3.36412
1 -1.97483 9.71701 3.68532
1 10.2301 3.52309 -2.03891
1 3.42953 10.1461 -1.89755
1 -0.731521 -6.92639 8.74394
1 -6.563 -0.630982 8.30493
1 1.11635 -8.1213 7.31955
1 -8.63661 0.735757 6.93712
1 8.57069 -7.0636 -0.537669
1 -7.12342 8.45464 -0.615665
1 6.67468 -8.52679 1.04313
1 -8.69495 6.54301 0.717569
1 9.0357 -0.922538 -7.07863
1 -0.859827 8.29141 -6.97265
1 6.97664 0.399589 -8.31505
1 0.74066 6.82106 -8.32255
1 -4.23976 -10.1863 1.89759
1 -10.0836 -3.70568 2.6328
1 1.95502 -9.8684 -3.67575
1 -10.1419 2.06924 -3.51774
1 1.96405 -3.66288 -10.2089
1 -3.89612 1.9466 -9.87094
1 6.87625 -4.89765 7.00294
1 -5.03635 6.83932 7.08979
1 2.81742 -6.38264 8.98883
1 -6.50131 2.21071 8.25802
1 6.67244 7.11025 -5.00088
1 8.81696 -7.58186 2.48195
1 -6.79873 8.25149 2.01746
1 8.41227 2.32154 -6.62462
1 2.55912 8.6293 -7.15875
1 -2.57735 -8.38622 6.99115
1 -8.3679 -2.37908 7.20218
1 6.91753 -8.39394 -2.52825
1 -8.43364 6.41725 -2.03076
1 -6.40941 -7.20161 5.14686
1 6.66851 -2.28858 -8.33666
1 -2.35452 6.59642 -8.83749
1 4.87538 -6.65304 -7.04521
1 -7.02151 5.04691 -6.94591
1 5.50722 5.67131 7.95662
1 3.83519 4.05193 9.84274
1 8.12499 5.5205 5.44839
1 5.70141 8.13414 5.2079
1 9.94579 3.85163 3.73776
1 3.78536 9.82374 3.64438
1 0.844821 -4.96863 10.2219
1 -4.92158 0.794767 9.94812
1 9.91654 -5.42281 1.64258
1 -4.91493 9.95929 0.566739
1 9.81493 0.418927 -4.97296
1 0.850788 10.2683 -6.02347
1 -0.699826 -9.82028 5.50647
1 -10.0246 -1.22945 5.08757
1 5.18338 -9.80658 -0.930459
1 -10.3049 4.72563 -1.0654
1 4.88452 -0.931134 -9.6712
1 -0.816574 4.97517 -10.2612
1 -3.55194 -9.93851 -3.56061
1 -9.86599 -3.50456 -3.89135
1 -5.29623 -8.19544 -5.42577
1 -7.93402 -5.47026 -5.43999
1 -3.36599 -3.45357 -10.3119
1 -5.26734 -5.10163 -8.23681
1 -0.70997 -0.843256 11.8557
1 11.9253 -0.532244 -0.898589
1 -0.721888 11.4652 -0.733407
1 -2.25341 -5.02568 10.0174
1 -5.44102 -2.57715 9.61111
1 3.72096 -7.78749 6.87346
1 -8.26792 3.84037 6.94346
1 6.67587 -8.45808 3.82333
1 -8.50197 6.85459 3.70479
1 -4.40914 -6.47108 8.61754
1 -6.58994 -4.4877 8.12942
1 9.8444 -5.45412 -2.51963
1 -5.34389 10.0294 -1.97525
1 2.22499 -9.53844 5.36146
1 -10.1492 2.49745 5.32809
1 10.1696 -2.26573 -4.92017
1 -2.44311 9.92153 -5.20481
1 4.98305 -10.0039 2.53596
1 -10.1108 5.02399 2.48904
1 6.95776 4.14962 -8.12258
1 3.87069 6.67451 -8.72722
1 8.3674 -6.78546 -4.26883
1 -6.88704 8.25541 -3.50394
1 8.8167 -3.95609 -6.8255
1 -3.65874 8.27943 -6.95372
1 5.54725 2.34361 -9.74216
1 2.12933 5.08654 -9.87686
1 1.11033 -11.8506 0.930515
1 -11.9951 0.956811 1.10351
1 0.876155 0.653622 -11.6765
1 2.14802 -0.379984 12.0773
1 -0.561266 2.39296 11.0568
1 11.2884 -0.605862 1.75957
1 -0.456128 11.6766 2.07826
1 12.1253 2.00913 -0.285239
1 1.84767 11.9742 -0.276517
1 -2.40248 -11.3887 0.547264
1 -11.109 -2.47283 0.630006
1 0.48953 -11.8981 -2.00664
1 -11.7204 0.466249 -1.87635
1 0.808136 -2.00172 -11.7647
1 -1.75561 0.497628 -12.2961
1 7.62323 7.67875 7.58136
1 2.1075 2.11218 11.2954
1 8.00004 -0.913203 8.54459
1 -0.716696 8.74621 7.95198
1 11.1219 2.01993 2.16003
1 2.06511 11.8054 2.35861
1 8.15464 7.98415 -0.43012
1 4.51667 -6.48262 11.0371
1 -6.05951 4.23814 10.3208
1 10.201 -5.84389 4.3172
1 -6.17764 10.6161 4.35855
1 10.6707 4.5637 -6.29565
1 4.23024 10.388 -5.88467
1 -4.19644 -10.4309 6.16399
1 -9.9204 -3.95116 5.60542
1 6.22474 -10.4276 -4.28961
1 -10.3349 5.95817 -4.25261
1 5.98505 -4.13805 -10.1259
1 -4.46603 6.17479 -10.5958
1 -8.63243 -7.65254 0.636069
1 -2.03507 -11.6479 -1.98991
1 -11.1892 -2.10098 -2.02384
1 1.43138 -8.04699 -8.50093
1 -8.48689 0.823345 -8.29419
1 -2.01939 -2.01029 -12.3357
1 -7.65672 -7.57144 -7.52724
1 8.49354 2.75127 8.91316
1 2.7527 8.83337 8.43592
1 7.04606 0.960121 10.2676
1 1.31507 7.1362 9.99516
1 10.6648 1.54824 7.66239
1 1.0868 10.3659 6.8178
1 9.07263 8.81512 2.84616
1 10.3224 7.14639 1.2039
1 7.56674 10.2301 1.31508
1 -0.826664 -3.44471 11.519
1 -3.66129 -1.29591 11.0254
1 5.5706 -7.80355 9.02883
1 -7.576 5.92495 8.63221
1 8.69793 -7.54238 5.6139
1 -7.81185 9.17049 5.73637
1 10.9792 -4.20805 -0.436483
1 -3.30485 11.544 -1.15189
1 11.9911 -1.11705 -3.46085
1 -0.164477 11.2411 -3.88866
1 9.22093 6.05316 -7.91894
1 5.50097 8.61419 -7.37798
1 -5.70528 -8.87007 7.65381
1 -9.20795 -5.94295 7.93811
1 0.846756 -11.0923 3.68786
1 -11.3112 0.680545 3.77892
1 3.66644 -11.2531 0.817407
1 -11.5457 3.57635 0.872122
1 7.90944 -9.16286 -5.80824
1 -8.8636 7.66917 -5.67539
1 7.68616 -5.65162 -8.74463
1 -5.67483 7.48697 -8.64061
1 3.72372 0.787754 -11.1216
1 0.655928 3.2818 -11.8114
1 -7.54656 -10.3748 -1.56618
1 -10.4179 -7.0959 -1.37133
1 -9.0201 -8.78496 -2.90064
1 -1.3915 -10.7489 -7.34531
1 -10.676 -1.49598 -7.50612
1 -1.48897 -7.50865 -10.3431
1 -7.26223 -1.14277 -10.2495
1 -2.83318 -9.0431 -8.82903
1 -8.61682 -2.6483 -8.48186
1 7.55539 -3.16063 10.4956
1 -2.97579 7.24249 10.7247
1 9.99834 -2.69437 7.40107
1 -3.12313 10.3919 7.61558
1 2.90812 -4.5604 12.0378
1 -4.39814 2.78982 11.8965
1 10.4559 7.55354 -3.02023
1 7.30691 10.3172 -2.75036
1 11.884 -4.18955 3.03719
1 -4.52443 11.767 2.88159
1 11.9321 3.07259 -4.57016
1 2.62751 11.8778 -4.3282
1 -2.68744 -11.7263 3.97907
1 -12.3809 -3.0728 4.47739
1 4.50515 -11.7142 -3.01196
1 -12.1175 4.36362 -2.98375
1 -7.17821 -10.6351 2.878
1 -10.2187 -7.36996 2.97524
1 4.1421 -2.69506 -11.767
1 -3.16327 4.73675 -12.2481
1 3.15494 -10.3858 -7.54953
1 -10.1914 2.88967 -7.31505
1 3.10801 -7.3 -10.3732
1 -7.39346 3.00749 -10.123
1 8.8495 -4.54163 8.81673
1 -4.50682 8.7597 9.02408
1 8.70111 8.81017 -4.29849
1 -6.03591 -5.88445 10.7913
1 5.86487 -10.6882 5.87114
1 -10.838 6.32053 5.88994
1 10.7208 -5.78231 -5.20097
1 -5.45309 10.0411 -5.2906
1 5.71941 5.83114 -10.4694
1 -8.45157 -8.63376 4.39519
1 4.63161 -8.70944 -8.75617
1 -8.98451 4.59101 -8.88826
1 7.04623 4.31857 10.3393
1 3.97632 7.09751 10.0757
1 9.99977 3.9135 6.9464
1 3.86169 9.91412 6.41394
1 10.0265 6.68859 3.93916
1 7.12298 10.1047 3.90365
1 5.87551 -1.22079 11.2678
1 -0.507257 5.76641 11.5366
1 11.365 -0.555785 5.94031
1 -1.33401 11.455 6.08501
1 11.1346 5.88601 -1.06212
1 5.80468 11.1158 -0.584932
1 -4.36357 -4.16735 11.8046
1 12.1741 -3.8322 -4.18709
1 -4.07373 11.8006 -3.88868
1 4.45002 -12.0793 4.53148
1 -12.2955 4.67377 4.49678
1 4.28244 4.21207 -11.7576
1 -5.95439 -11.4954 0.22972
1 -11.0951 -5.80226 1.00897
1 1.06159 -11.2549 -5.8506
1 -11.4815 0.635121 -5.78158
1 0.569612 -5.82689 -11.1336
1 -6.14288 1.13808 -11.5596
1 -7.04599 -10.0192 -4.01181
1 -10.3471 -7.04985 -4.07047
1 -4.01506 -10.117 -6.85422
1 -10.0568 -3.93232 -6.80972
1 -4.01142 -6.89897 -10.01
1 -7.11054 -3.85292 -10.1234
1 5.47199 2.60367 11.4339
1 2.42664 5.49727 11.7795
1 11.4276 2.25463 5.29908
1 2.62642 11.9027 5.10993
1 11.7404 5.49823 2.55459
1 5.48574 11.3709 2.18577
1 7.03408 -9.04087 7.09764
1 -9.17004 7.60287 7.23213
1 7.12422 7.17552 -8.89653
1 -7.15949 -7.15329 9.01817
1 9.11882 -6.95892 -6.87799
1 -7.022 8.93977 -7.02895
1 -5.58704 -11.7786 -2.42173
1 -11.7467 -5.4037 -2.71425
1 -2.61844 -11.734 -5.41708
1 -11.75 -2.36043 -5.42854
1 -2.2569 -5.54472 -11.6006
1 -5.5159 -2.50109 -11.6031
1 8.31462 5.36325 8.45743
1 5.27159 8.5312 8.21808
1 8.46667 8.28908 5.31994
1 -0.0324217 1.13714 13.2186
1 13.7548 -0.334891 1.25334
1 -0.218862 13.715 0.338838
1 0.579181 -8.77576 10.3791
1 -8.48584 0.665176 9.66474
1 10.2044 -8.88677 0.597322
1 -8.75204 10.343 0.634243
1 -0.625568 -9.74574 8.36819
1 -10.2061 -0.96988 8.54675
1 10.072 0.975871 -8.79286
1 0.536032 10.1505 -8.56187
1 8.26383 -9.83654 -0.682668
1 -10.0179 8.53633 -0.739207
1 8.69688 -0.607632 -10.1596
1 -0.766028 8.59665 -10.0756
1 -0.928031 -13.431 -0.0197909
1 -12.9727 -0.94372 -0.2056
1 0.110426 -1.11248 -13.9763
1 -8.64708 -8.46074 -5.39802
1 -5.40984 -8.4931 -8.28833
1 -8.18601 -5.16229 -8.23914
1 5.29916 -3.94905 11.4835
1 -4.1396 5.24293 11.7341
1 1.33042 -2.63848 12.6348
1 -2.65562 0.950014 12.6751
1 6.75966 -5.64329 9.95848
1 -5.64721 6.80067 10.1098
1 11.2123 -3.44826 5.35369
1 -3.80539 11.1218 5.24831
1 9.80263 -5.37213 6.70653
1 -5.43528 9.80806 6.71048
1 12.8508 -2.68687 0.926222
1 -2.66873 12.4365 1.20715
1 11.3505 5.40828 -3.8745
1 5.20686 11.4689 -3.60954
1 12.2233 1.41213 -2.72724
1 0.85251 13.0611 -2.35485
1 9.88053 6.86954 -5.50369
1 6.70179 9.93792 -5.34594
1 2.11573 -10.3436 8.64894
1 -10.2061 2.4144 8.25302
1 -2.1656 -8.67285 10.214
1 -8.4048 -2.13761 9.85675
1 8.6179 -10.1901 2.22935
1 -10.2272 8.59671 2.02133
1 10.0191 -8.53301 -2.07478
1 -8.59157 10.2399 -2.12526
1 8.36361 2.19023 -10.0881
1 2.09445 8.64068 -9.9103
1 10.5692 -2.28777 -8.82415
1 -2.31555 10.0402 -8.59861
1 -6.75671 -10.0844 5.63763
1 -9.9688 -6.72945 5.57403
1 -0.977048 -12.7692 2.47994
1 -12.6656 -1.28328 2.55886
1 -5.22957 -11.6015 4.12184
1 -11.4824 -5.39883 3.96308
1 2.78834 -12.3767 -1.33615
1 -12.7151 2.64012 -1.19995
1 5.62822 -9.89112 -6.75131
1 -9.90529 5.51752 -6.72149
1 3.87631 -11.2727 -5.38495
1 -11.4945 3.70913 -5.33232
1 5.54381 -6.61796 -9.7653
1 -6.81149 5.47785 -9.76147
1 2.66051 -0.686501 -13.1063
1 -1.55524 2.95818 -13.0413
1 3.91242 -5.17948 -11.4199
1 -5.37145 3.92291 -11.3148
1 -2.82074 -2.51796 13.1534
1 -0.787668 -6.89425 11.4811
1 -6.97083 -0.707259 11.3342
1 12.7799 -2.87308 -1.75036
1 -1.84235 12.8808 -2.74254
1 11.6083 -7.09551 -0.541854
1 -7.19313 11.8503 -0.778395
1 11.699 -0.345605 -7.51015
1 0.687731 -11.5428 6.97784
1 -1.07509 11.7086 -7.3122
1 -11.3154 0.523569 6.81675
1 6.84964 -11.4921 0.719281
1 -11.486 6.88339 0.648142
1 2.76404 -12.6814 2.77666
1 -12.6554 2.75669 2.9197
1 6.94783 0.685695 -11.5627
1 0.71341 7.04285 -11.4729
1 2.76107 2.44417 -12.8845
1 4.4188 0.676415 12.664
1 0.739734 3.72071 12.8839
1 12.7989 0.746861 3.71576
1 0.335534 12.7889 4.53792
1 12.9114 4.25746 0.694982
1 4.17937 12.8643 0.623891
1 1.97488 -6.94611 11.537
1 -6.89984 1.938 11.1996
1 3.27369 -8.7262 10.1422
1 -8.47556 3.49012 9.70256
1 11.5947 -7.37166 2.18649
1 -6.77489 11.2951 1.92195
1 10.472 -8.91536 3.97931
1 -8.43081 9.87376 3.26194
1 11.1857 2.17015 -6.85588
1 2.44663 11.8241 -7.32472
1 9.81871 3.60118 -8.55154
1 3.93295 10.3594 -8.69213
1 -3.5887 -10.1055 8.60998
1 -10.1973 -3.60437 8.58623
1 -1.99165 -11.4508 7.0317
1 -11.6211 -2.26083 6.85977
1 8.56874 -10.2407 -3.47048
1 -9.75682 8.30183 -3.32325
1 6.89115 -11.6022 -1.99838
1 -11.5192 6.81473 -2.1249
1 8.47662 -3.30756 -9.7855
1 -3.57548 8.48433 -10.096
1 6.71005 -1.98693 -11.2115
1 -2.0493 6.95177 -11.5657
1 -3.86373 -13.1049 -0.775357
1 -12.6315 -4.14596 -0.705698
1 -0.612899 -12.8065 -4.22256
1 -12.9478 -0.688364 -3.89973
1 -0.443255 -3.94754 -13.1811
1 -4.26822 -0.410723 -12.4047
1 5.07259 5.31058 11.7494
1 11.6514 5.00138 5.19111
1 5.22888 11.6625 4.91749
1 3.90874 -2.08897 12.8197
1 -1.92636 3.89852 12.7374
1 12.4923 -1.8159 3.77171
1 -2.20576 12.4409 3.86722
1 7.91819 -6.90624 8.02045
1 -6.92017 8.33418 8.18117
1 12.6831 3.91672 -2.083
1 3.67197 12.7298 -2.00378
1 8.08196 8.16662 -6.76691
1 -8.13264 -8.02578 6.89766
1 -4.33466 -12.7171 1.88559
1 -12.691 -3.94729 2.03954
1 6.97366 -7.91381 -7.97676
1 -8.30412 6.99519 -8.17393
1 2.08528 -12.6182 -3.95676
1 -12.6682 1.97834 -3.80378
1 2.07109 -4.18697 -12.7993
1 -3.8388 2.10531 -12.4221
1 -5.18318 -11.5462 -4.93242
1 -11.6448 -5.06062 -5.17635
1 -5.34949 -5.16874 -11.4397
1 6.57247 6.88623 9.93026
1 9.9608 6.56288 6.75296
1 6.71727 10.0756 6.51768
1 -3.55741 -6.69024 11.4363
1 -6.96332 -3.49281 11.5374
1 3.37954 -11.5338 6.75894
1 -11.7675 4.06223 6.84026
1 6.84534 -11.5529 3.48786
1 -11.5791 6.93742 3.4576
1 11.7945 -7.2339 -3.28852
1 -6.74711 11.6161 -3.44755
1 11.4957 -3.8017 -6.77852
1 -3.65345 11.521 -6.77368
1 6.86667 3.60723 -11.5927
1 3.42491 6.82248 -11.333
1 -6.68609 -9.96838 -6.56664
1 -9.9047 -6.56675 -6.66122
1 -6.61249 -6.58935 -9.74523
1 3.56762 3.40347 12.8805
1 9.66259 0.615674 9.81366
1 0.889177 9.73313 9.72966
1 12.9106 3.36964 3.39306
1 4.02828 13.2939 3.2373
1 9.8921 9.68755 0.551683
1 0.605602 -5.14513 13.0623
1 -5.21356 0.571814 12.6949
1 12.8175 -5.3416 0.912563
1 -5.07817 12.7061 0.484863
1 4.67857 -9.93308 8.10617
1 -9.99905 5.28821 8.11359
1 8.32057 -10.0712 5.0663
1 -10.2069 8.59725 4.86759
1 12.5274 0.723238 -5.31247
1 0.636793 12.9337 -5.80742
1 -4.91861 -8.32449 10.1045
1 -8.36763 -4.80912 9.99091
1 8.32456 5.02986 -10.1315
1 5.06153 8.44537 -10.0301
1 -0.652537 -12.7117 5.02898
1 -13.0134 -0.690655 5.19532
1 10.1648 -8.53909 -4.77192
1 -8.18119 10.0617 -4.85125
1 10.185 -4.99097 -8.64922
1 -5.04143 9.99778 -8.24923
1 5.08112 -12.8136 -0.639429
1 -12.9719 5.22478 -0.636424
1 5.15295 -0.589459 -12.7888
1 -0.600362 5.33669 -12.9379
1 -9.77998 -9.5798 -0.585154
1 -3.52219 -13.0865 -3.404
1 -13.0955 -3.2983 -3.34935
1 -0.426765 -9.66051 -9.4715
1 -9.83214 -0.783054 -9.94777
1 -3.77768 -3.87508 -12.8648
1 8.39032 -0.844176 11.4656
1 -0.666926 8.33855 11.2107
1 11.4315 -0.731629 8.48439
1 -0.834051 11.216 8.52279
1 9.88874 -2.2654 9.89721
1 -2.33049 9.63685 9.95168
1 11.5407 8.36667 -0.851963
1 8.34042 11.527 -0.727446
1 9.7671 9.86672 -2.10489
1 -2.15251 -5.12817 12.8833
1 -5.38213 -1.96743 12.8585
1 12.7243 -5.31247 -2.04054
1 -5.3146 13.1109 -1.97097
1 12.7062 -1.79478 -5.77888
1 -1.96695 12.7683 -5.26966
1 1.97399 -12.9022 5.26863
1 -12.8315 2.11013 5.41722
1 5.2195 -12.9809 2.0903
1 -13.0512 5.32813 2.01434
1 5.25637 2.07509 -12.9124
1 2.102 5.23951 -12.7737
1 -9.45848 -9.63109 2.16289
1 -8.43456 -11.3862 0.648809
1 -11.391 -8.38621 0.83134
1 2.40862 -9.87478 -10.0087
1 -9.99763 2.37694 -9.87129
1 1.00214 -11.3813 -8.39927
1 -11.2331 0.76649 -8.43157
1 0.803482 -8.3858 -11.2532
1 -8.54401 0.896653 -11.2852
