971
 Atoms. Timestep: 100
1 -0.00892996 -0.00928783 -0.0221153
1 1.32498 2.23216 -0.02005
1 -1.32357 2.24612 -0.035855
1 1.36257 -2.21719 0.00616821
1 -1.34358 -2.21074 -0.113242
1 0.0296635 1.44786 2.20136
1 -0.0191826 -1.27853 2.20611
1 0.0356579 1.34548 -2.2806
1 0.0444318 -1.35765 -2.2116
1 2.1986 -0.0123728 1.33767
1 -2.15433 0.0483678 1.33708
1 2.22876 0.0221897 -1.37693
1 -2.22804 0.0379474 -1.38891
1 2.73896 4.55548 -0.029463
1 -2.73918 4.45413 -0.0256204
1 2.68204 -4.41008 0.13868
1 -2.76634 -4.44192 0.00345386
1 -0.0313182 2.83436 4.49541
1 -0.0757949 -2.74371 4.40105
1 -0.00622813 2.8513 -4.41471
1 0.029049 -2.73251 -4.45581
1 4.52847 -0.0138256 2.75336
1 -4.46436 0.0578985 2.74915
1 4.48348 0.022216 -2.77527
1 -4.46752 -0.0459453 -2.71611
1 -0.0132913 4.5623 -0.0948613
1 1.37937 3.70909 2.211
1 1.46475 3.63825 -2.2329
1 3.58159 2.23115 1.32771
1 3.66777 2.30031 -1.383
1 -1.33287 3.57096 2.23052
1 -1.39515 3.633 -2.31181
1 -3.65321 2.29454 1.3769
1 -3.62952 2.34967 -1.47376
1 -0.0492219 -4.52057 0.0877786
1 1.30546 -3.65186 2.25871
1 1.41356 -3.5885 -2.26569
1 3.54597 -2.28197 1.38049
1 3.63582 -2.19736 -1.38101
1 -1.43948 -3.56954 2.20862
1 -1.35301 -3.66819 -2.25203
1 -3.59568 -2.18632 1.39382
1 -3.64468 -2.27193 -1.34387
1 0.0637215 0.032973 4.46015
1 2.31573 1.41804 3.63198
1 -2.19427 1.39651 3.6518
1 2.2271 -1.38521 3.58588
1 -2.26564 -1.24992 3.63845
1 0.0390549 -0.00828575 -4.53027
1 2.32917 1.29737 -3.63329
1 -2.27698 1.39813 -3.68187
1 2.29235 -1.40763 -3.62387
1 -2.18644 -1.42141 -3.60187
1 4.5043 0.0264962 -0.114999
1 -4.37622 0.0641575 -0.0203199
1 4.21085 6.74694 0.0634689
1 -4.21395 6.7223 0.0202803
1 4.02952 -6.73045 -0.0610007
1 -4.17141 -6.66284 0.0284256
1 -0.0193078 4.21995 6.74319
1 -0.0287452 -4.09158 6.66785
1 0.0346661 4.10515 -6.71399
1 0.0146297 -4.2079 -6.65082
1 6.65749 -0.0610472 4.1641
1 -6.69516 -0.0202634 4.04932
1 6.67965 0.00513364 -4.09501
1 -6.72995 -0.0653155 -4.14031
1 1.36667 6.9484 0.0579068
1 2.78376 6.09903 2.34908
1 2.81571 5.95574 -2.31369
1 5.1323 4.53978 1.32872
1 5.13895 4.57864 -1.42228
1 -2.76669 5.93651 2.34577
1 -2.77669 6.01913 -2.38891
1 -5.10032 4.59106 1.47951
1 -5.07738 4.51014 -1.50799
1 1.34962 -6.8102 0.0511869
1 2.7219 -5.94832 2.42376
1 2.7934 -5.92748 -2.32477
1 5.06042 -4.515 1.47673
1 5.01242 -4.44652 -1.34087
1 -2.8054 -5.87184 2.30838
1 -2.75904 -5.99669 -2.22187
1 -5.039 -4.49564 1.42751
1 -5.07286 -4.60642 -1.46945
1 0.11289 1.37348 6.88448
1 2.39671 2.75666 5.91259
1 -2.28874 2.86731 5.98803
1 2.24041 -2.74161 5.90826
1 -2.35605 -2.79373 5.91185
1 0.0551609 1.40977 -6.80132
1 2.33538 2.74689 -5.94849
1 -2.32462 2.78976 -5.90145
1 2.33371 -2.84164 -5.95612
1 -2.32788 -2.7883 -5.97373
1 6.79173 -0.0462039 1.29868
1 -6.78011 0.0438068 1.35199
1 -1.30993 6.8408 0.0061274
1 1.50892 5.17186 4.52276
1 1.48698 5.19998 -4.52259
1 5.97869 2.35549 2.77595
1 5.97022 2.33418 -2.75188
1 -1.38478 5.14978 4.54994
1 -1.45269 5.13423 -4.52421
1 -6.00157 2.31249 2.70137
1 -5.92154 2.229 -2.8412
1 -1.35332 -6.95388 0.00342888
1 1.42072 -5.16922 4.55118
1 1.41541 -5.09181 -4.43766
1 5.98918 -2.31469 2.80921
1 5.97747 -2.27024 -2.82928
1 -1.48379 -5.04245 4.53649
1 -1.48704 -5.13181 -4.41629
1 -5.96178 -2.29385 2.73504
1 -5.93589 -2.26362 -2.80087
1 0.0438791 -1.30439 6.80347
1 4.61984 1.43911 5.09921
1 -4.47402 1.4912 5.13449
1 4.521 -1.48137 5.08426
1 -4.51998 -1.3354 5.14885
1 -0.0868007 -1.44788 -6.83417
1 4.53894 1.39724 -5.2159
1 -4.5646 1.34931 -5.17089
1 4.51299 -1.48902 -5.14383
1 -4.58109 -1.5201 -5.11232
1 6.85789 0.0101728 -1.32419
1 -6.7466 -0.0492791 -1.32487
1 -0.0162903 5.92672 2.27866
1 0.0360553 6.0222 -2.2837
1 3.65935 3.74105 3.6283
1 3.73235 3.71112 -3.70031
1 5.92784 2.23689 0.0344248
1 -3.61971 3.74012 3.67353
1 -3.66689 3.73451 -3.72531
1 -5.9167 2.32012 -0.113465
1 -0.0744236 -5.95272 2.37188
1 0.0847936 -5.89529 -2.24645
1 3.59204 -3.65658 3.64454
1 3.74006 -3.703 -3.64372
1 6.0208 -2.25416 0.00161396
1 -3.75827 -3.66292 3.75758
1 -3.73947 -3.73217 -3.74254
1 -5.97917 -2.2854 0.0205543
1 2.34134 0.0496106 5.9847
1 -2.17327 0.0886908 5.93648
1 2.26456 -0.0530956 -6.03034
1 -2.2638 0.0426448 -6.00774
1 5.67496 9.00468 0.0091861
1 -5.6271 9.10502 -0.0762403
1 5.57945 -8.99933 0.0185889
1 -5.55363 -9.04303 0.068432
1 0.131871 5.55845 9.01794
1 0.0447841 -5.55451 9.04151
1 -0.0419872 5.60265 -9.00378
1 0.00579187 -5.60968 -9.02134
1 8.98705 -0.0292505 5.53516
1 -8.9558 0.0527839 5.61606
1 9.02423 -0.0117864 -5.52648
1 -9.00612 -0.00179298 -5.5687
1 2.78367 9.13068 0.0585405
1 4.24196 8.34342 2.36712
1 4.22369 8.30795 -2.48795
1 6.55788 6.85733 1.4195
1 6.53653 6.79458 -1.44602
1 -4.20124 8.24417 2.33431
1 -4.32451 8.18498 -2.30126
1 -6.52309 6.85914 1.48706
1 -6.56002 6.78784 -1.34462
1 2.74297 -9.17066 0.132998
1 4.19197 -8.2156 2.2919
1 4.18141 -8.25232 -2.31164
1 6.5882 -6.78281 1.41892
1 6.50569 -6.69562 -1.42316
1 -4.22677 -8.22553 2.36716
1 -4.21746 -8.27271 -2.31153
1 -6.48875 -6.88699 1.33387
1 -6.5128 -6.82002 -1.45876
1 0.113936 2.79362 9.18119
1 2.4055 4.26433 8.23125
1 -2.3551 4.24919 8.28252
1 2.29809 -4.23741 8.20909
1 -2.3438 -4.27562 8.18307
1 -0.0589847 2.77032 -9.15628
1 2.38925 4.19736 -8.26434
1 -2.36207 4.19615 -8.21911
1 2.33605 -4.27754 -8.26565
1 -2.32741 -4.2203 -8.23295
1 9.15455 -0.0553479 2.77355
1 -9.1234 0.00604613 2.77939
1 -0.00430763 9.34522 -0.0615254
1 2.84083 7.63815 4.63257
1 2.81127 7.57346 -4.68872
1 7.53827 4.65017 2.81314
1 7.50859 4.67874 -2.9064
1 -2.86017 7.50569 4.64981
1 -2.89511 7.60172 -4.60703
1 -7.50677 4.59816 2.84607
1 -7.56294 4.60383 -2.88464
1 -0.0713413 -9.37681 0.036209
1 2.83204 -7.59498 4.71173
1 2.96974 -7.56142 -4.63867
1 7.46674 -4.67311 2.88983
1 7.50246 -4.54642 -2.78664
1 -2.93847 -7.49669 4.69475
1 -2.87951 -7.58992 -4.60313
1 -7.45896 -4.70448 2.8694
1 -7.50392 -4.64816 -2.85801
1 0.0120233 0.0160573 9.34631
1 4.71789 2.78191 7.49244
1 -4.70628 2.91992 7.53681
1 4.64527 -2.91032 7.52973
1 -4.61998 -2.93335 7.48257
1 -0.0178322 -0.0172503 -9.35851
1 4.59978 2.84309 -7.62419
1 -4.64444 2.84509 -7.48864
1 4.71019 -2.95751 -7.60853
1 -4.65065 -2.90317 -7.54575
1 9.38131 -0.0656099 0.0820624
1 -9.31565 0.0081347 -0.0140242
1 -2.74613 9.13653 -0.041673
1 1.4308 6.70973 6.8624
1 1.41968 6.60227 -6.83263
1 8.26537 2.30937 4.20018
1 8.25587 2.40331 -4.1651
1 -1.51982 6.5637 6.80914
1 -1.54053 6.58023 -6.84089
1 -8.32674 2.31215 4.12953
1 -8.37244 2.26508 -4.21
1 -2.79433 -9.17358 0.0490196
1 1.44432 -6.57774 6.85099
1 1.47573 -6.5154 -6.80793
1 8.22802 -2.39958 4.19531
1 8.24526 -2.30911 -4.26799
1 -1.55586 -6.51759 6.82805
1 -1.49057 -6.59198 -6.69577
1 -8.17672 -2.28908 4.19348
1 -8.28912 -2.31014 -4.13505
1 -0.0544552 -2.73363 9.14277
1 6.8937 1.41856 6.47883
1 -6.81009 1.38647 6.56534
1 6.79053 -1.47412 6.60633
1 -6.80415 -1.45732 6.61373
1 -0.0344463 -2.78787 -9.23577
1 6.81584 1.46021 -6.59314
1 -6.82314 1.3999 -6.54155
1 6.7354 -1.51474 -6.61881
1 -6.79195 -1.4534 -6.6036
1 9.23828 0.000256629 -2.6297
1 -9.12854 -0.109808 -2.80039
1 1.39154 8.42606 2.34143
1 1.39168 8.43557 -2.30653
1 5.21169 6.05142 3.71758
1 5.22799 6.06344 -3.73362
1 7.5458 4.55405 0.0363652
1 -5.17349 6.05106 3.78418
1 -5.27856 6.11471 -3.69545
1 -7.5226 4.6172 0.0112715
1 1.37206 -8.44377 2.45767
1 1.39904 -8.38431 -2.25447
1 5.15254 -6.06887 3.7586
1 5.19881 -6.02966 -3.77235
1 7.58689 -4.56288 -0.0190259
1 -5.27947 -6.1197 3.8427
1 -5.1599 -6.06379 -3.78452
1 -7.48547 -4.59011 -0.0510332
1 2.3779 1.40647 8.46823
1 -2.19558 1.45222 8.36567
1 2.32298 1.42905 -8.45683
1 -2.27529 1.43472 -8.40983
1 0.0566593 7.51971 4.65747
1 -0.0348548 7.53789 -4.58272
1 6.06765 3.73874 5.21253
1 6.02759 3.75326 -5.18758
1 8.34469 2.34052 -1.42277
1 -6.03095 3.72275 5.13445
1 -6.17524 3.75621 -5.17446
1 -8.33797 2.26608 -1.41517
1 -0.0487385 -7.4674 4.73818
1 0.027154 -7.52362 -4.58972
1 6.04197 -3.79636 5.29028
1 6.15961 -3.78267 -5.17227
1 8.49377 -2.32491 -1.46995
1 -6.07314 -3.87487 5.19135
1 -6.08503 -3.71903 -5.25167
1 -8.43983 -2.39594 -1.36197
1 4.63982 -0.105622 7.5354
1 -4.60486 0.0705238 7.47413
1 4.57434 -0.0203319 -7.55798
1 -4.60362 -0.0432411 -7.52858
1 -1.4009 8.43945 2.32461
1 -1.46507 8.43372 -2.38283
1 3.8265 5.20016 6.03758
1 3.79303 5.17648 -6.05309
1 8.47814 2.31913 1.51397
1 -3.74611 5.13058 6.07613
1 -3.8558 5.16478 -6.01027
1 -8.42363 2.34174 1.41489
1 -1.45314 -8.38583 2.39262
1 -1.4597 -8.4207 -2.30209
1 3.77075 -5.2243 6.11091
1 3.79927 -5.16324 -6.03288
1 8.43853 -2.32974 1.48492
1 -3.72291 -5.24239 6.0442
1 -3.80379 -5.15863 -6.05181
1 -8.39444 -2.33912 1.44545
1 2.30466 -1.45787 8.40288
1 -2.3092 -1.39848 8.28509
1 2.23598 -1.53626 -8.4469
1 -2.33446 -1.45224 -8.39735
1 7.05551 11.3195 -0.0383106
1 -7.09473 11.391 0.00233517
1 6.92995 -11.3935 -0.030966
1 -7.04457 -11.425 -0.155228
1 0.0825194 7.1026 11.3688
1 -0.00980942 -6.98888 11.3251
1 -0.0402838 7.05097 -11.359
1 0.0761873 -7.03532 -11.3722
1 11.3049 0.0195577 7.09093
1 -11.3837 0.0427777 7.01497
1 11.4334 -0.101361 -6.90643
1 -11.4374 0.0177755 -6.97614
1 4.28056 11.2659 -0.0678539
1 5.62748 10.5885 2.29312
1 5.587 10.4713 -2.43869
1 7.93315 9.11938 1.51099
1 7.95448 9.00455 -1.49203
1 -5.56728 10.5144 2.33683
1 -5.76319 10.5282 -2.24199
1 -7.89232 9.08766 1.4195
1 -8.13224 9.09382 -1.34002
1 4.04985 -11.5108 0.0504975
1 5.58489 -10.5131 2.21363
1 5.5621 -10.5737 -2.25226
1 7.97601 -9.06174 1.40617
1 7.82474 -9.04204 -1.38464
1 -5.73034 -10.4948 2.28393
1 -5.56947 -10.5319 -2.38536
1 -7.95091 -9.12398 1.33305
1 -7.94415 -9.05305 -1.57329
1 -0.00644023 4.24484 11.4082
1 2.28033 5.49726 10.589
1 -2.26133 5.62855 10.6678
1 2.33087 -5.59328 10.5756
1 -2.27714 -5.59777 10.5218
1 -0.014262 4.18427 -11.4816
1 2.39267 5.68274 -10.5178
1 -2.41044 5.65268 -10.4881
1 2.38334 -5.68503 -10.6296
1 -2.18981 -5.58641 -10.51
1 11.3809 -0.0565818 4.18265
1 -11.4399 -0.0554025 4.24632
1 1.39676 11.5903 -0.074143
1 4.28516 9.95772 4.74374
1 4.23762 9.78 -4.88275
1 9.14988 6.92164 2.90582
1 9.05149 6.92942 -2.94011
1 -4.25947 9.95234 4.66463
1 -4.24649 9.87375 -4.63633
1 -9.01111 6.96569 2.94771
1 -8.97928 6.98981 -2.91919
1 1.3579 -11.7232 0.0102097
1 4.35306 -9.85866 4.70735
1 4.20006 -9.96152 -4.63189
1 8.96832 -6.90678 2.95504
1 8.93515 -6.95693 -2.86953
1 -4.21611 -9.87435 4.70087
1 -4.29541 -9.90497 -4.67089
1 -8.99164 -6.9283 2.91107
1 -9.03344 -6.87323 -3.03156
1 -0.0616665 1.36336 11.7243
1 4.70439 4.1866 9.86647
1 -4.66021 4.34986 9.9284
1 4.6239 -4.37373 9.84849
1 -4.65981 -4.30933 9.80147
1 -0.0837351 1.38557 -11.6709
1 4.66187 4.29679 -9.86319
1 -4.74551 4.38676 -9.88749
1 4.77329 -4.3165 -9.95986
1 -4.65014 -4.34598 -9.90419
1 11.6285 -0.0912345 1.43527
1 -11.606 -0.0093771 1.35828
1 -1.394 11.6955 -0.0686826
1 2.97918 9.08271 6.97481
1 2.78377 9.01206 -7.0102
1 9.82258 4.64176 4.21395
1 9.797 4.76362 -4.23956
1 -2.96366 8.88948 6.89059
1 -2.9542 9.123 -6.92734
1 -9.76693 4.7064 4.30774
1 -9.85603 4.83608 -4.26296
1 -1.38695 -11.6245 -0.0276956
1 2.95849 -8.99766 6.97052
1 3.00125 -9.08174 -6.88297
1 9.75048 -4.74094 4.36841
1 9.83417 -4.68178 -4.23682
1 -2.86458 -9.11867 6.96637
1 -2.90852 -8.93418 -6.9489
1 -9.71835 -4.70228 4.42782
1 -9.86377 -4.59788 -4.3972
1 0.0713918 -1.33351 11.7813
1 7.02535 2.87275 8.93447
1 -6.86817 2.87898 9.11535
1 6.9045 -2.95959 9.11288
1 -6.9392 -2.87714 9.13585
1 0.0302414 -1.30345 -11.755
1 6.95803 2.92031 -9.02449
1 -6.96702 2.85105 -9.01124
1 6.94246 -2.9031 -9.07664
1 -6.90451 -2.84999 -9.0536
1 11.6482 -0.0261087 -1.31039
1 -11.6324 -0.0482863 -1.39238
1 -4.1332 11.4483 0.0445129
1 1.47724 8.01537 9.15951
1 1.4141 7.92281 -9.14661
1 10.5151 2.35355 5.54628
1 10.514 2.27914 -5.59303
1 -1.37714 8.01439 9.1765
1 -1.47971 8.04528 -9.09637
1 -10.5282 2.381 5.60365
1 -10.644 2.30469 -5.57482
1 -4.19947 -11.4323 0.0250756
1 1.3929 -7.95959 9.13737
1 1.53245 -8.01303 -9.00872
1 10.4906 -2.26124 5.72804
1 10.5027 -2.31602 -5.7233
1 -1.44962 -8.02887 9.05723
1 -1.47973 -7.83205 -9.09356
1 -10.4848 -2.25706 5.67441
1 -10.4592 -2.28308 -5.67465
1 0.0347482 -4.0947 11.4532
1 9.12063 1.47113 7.94658
1 -9.05152 1.46081 7.94053
1 9.06979 -1.47252 7.99807
1 -9.09013 -1.42195 7.94099
1 0.000595777 -4.28508 -11.4401
1 9.04211 1.47029 -7.88316
1 -9.05283 1.40343 -8.01019
1 9.08699 -1.40794 -7.87296
1 -9.04241 -1.41567 -8.06239
1 11.4985 0.108979 -4.0789
1 -11.4424 0.0228219 -4.24315
1 2.85361 10.8236 2.34746
1 2.85526 10.7511 -2.44106
1 6.69979 8.38033 3.95526
1 6.728 8.34497 -3.87471
1 9.0972 6.79917 0.0626037
1 -6.65198 8.37752 3.8892
1 -6.70893 8.3335 -3.76303
1 -9.06708 6.8152 -0.0399388
1 2.72435 -10.7812 2.39769
1 2.74562 -10.7354 -2.2507
1 6.62616 -8.3012 3.81543
1 6.57347 -8.31482 -3.88647
1 9.08042 -6.86484 -0.0236695
1 -6.73669 -8.38617 3.81882
1 -6.64228 -8.40804 -3.94323
1 -9.11248 -6.87075 -0.161209
1 2.53231 2.69489 10.7581
1 -2.29889 2.82764 10.8185
1 2.33731 2.85639 -10.7507
1 -2.35122 2.85154 -10.7179
1 1.39008 9.89546 4.79639
1 1.42319 9.86563 -4.66248
1 7.5256 6.19575 5.34636
1 7.58639 6.14182 -5.25219
1 9.90805 4.63016 -1.35974
1 -7.57868 6.07679 5.20886
1 -7.61672 6.12526 -5.20473
1 -9.92345 4.54917 -1.47373
1 1.42845 -9.96139 4.73118
1 1.44347 -9.91078 -4.58749
1 7.48493 -6.14484 5.33908
1 7.69626 -6.19587 -5.29432
1 10.0391 -4.63937 -1.46833
1 -7.60844 -6.19648 5.21287
1 -7.49539 -6.14487 -5.3151
1 -9.94781 -4.63731 -1.46945
1 4.78807 1.28669 9.8702
1 -4.606 1.48597 9.99144
1 4.65601 1.36281 -9.93785
1 -4.64454 1.45952 -9.90472
1 -0.0339835 9.02201 6.9579
1 -0.10405 9.02372 -6.88802
1 8.39014 3.86861 6.60306
1 8.38637 3.98094 -6.65573
1 10.7564 2.39895 -2.81952
1 -8.32316 3.82233 6.68599
1 -8.50395 3.8164 -6.6174
1 -10.6965 2.31357 -2.76607
1 -0.0581349 -8.99453 6.92872
1 0.118281 -8.94613 -6.89745
1 8.33206 -3.87326 6.67082
1 8.37435 -3.90961 -6.81124
1 10.7844 -2.30218 -2.83921
1 -8.33712 -3.80681 6.61182
1 -8.35699 -3.89147 -6.72097
1 -10.7123 -2.37859 -2.77683
1 6.93657 -0.0632583 8.98315
1 -6.86399 0.0233484 8.99758
1 6.87794 0.0694749 -9.15175
1 -6.81644 0.0629723 -9.03933
1 0.045532 10.8629 2.30292
1 0.0206245 10.8514 -2.38648
1 5.25368 7.55636 6.07476
1 5.31877 7.63205 -6.14291
1 9.95557 4.59156 1.42204
1 -5.26066 7.56833 6.10057
1 -5.2094 7.66877 -6.11785
1 -9.94394 4.60009 1.43244
1 -0.117223 -10.8512 2.39944
1 0.0978591 -10.8337 -2.32235
1 5.22351 -7.67891 6.17235
1 5.29892 -7.61387 -6.18725
1 9.9817 -4.66191 1.50767
1 -5.26018 -7.65735 6.19465
1 -5.25882 -7.62496 -6.06922
1 -9.99481 -4.6657 1.47059
1 2.32207 -0.0712971 10.8758
1 -2.26969 -0.0133544 10.765
1 2.35114 0.0322585 -10.8892
1 -2.4386 0.11024 -10.8607
1 -1.44318 9.96366 4.68477
1 -1.46961 9.92815 -4.70812
1 6.08989 5.22755 7.58066
1 6.07745 5.24999 -7.67939
1 10.8076 2.30913 -0.00774789
1 -6.11167 5.15841 7.56256
1 -6.13366 5.2333 -7.52693
1 -10.8073 2.27453 -0.0454284
1 -1.45898 -9.94504 4.64698
1 -1.35227 -9.87782 -4.70272
1 6.03446 -5.3284 7.62539
1 6.20799 -5.33106 -7.59739
1 10.8766 -2.36184 0.0517766
1 -6.13899 -5.34394 7.59447
1 -6.12564 -5.23431 -7.5754
1 -10.8692 -2.31992 0.15076
1 4.62258 -1.59418 10.0209
1 -4.63794 -1.30264 9.84093
1 4.64388 -1.52667 -9.91088
1 -4.70171 -1.47627 -9.99022
1 -2.77891 10.8043 2.33362
1 -2.7641 10.6865 -2.34646
1 3.78388 6.67673 8.40309
1 3.76239 6.64398 -8.33418
1 10.7687 2.31257 2.86375
1 -3.82306 6.59204 8.38001
1 -3.9152 6.70157 -8.31057
1 -10.6946 2.30408 2.85477
1 -2.89572 -10.7137 2.3368
1 -2.74395 -10.8049 -2.40442
1 3.66016 -6.66333 8.41371
1 3.97474 -6.55858 -8.40465
1 10.7947 -2.48388 2.92814
1 -3.83277 -6.75235 8.32108
1 -3.87122 -6.6173 -8.3294
1 -10.7928 -2.33408 2.77303
1 2.28589 -2.78075 10.7378
1 -2.36157 -2.74946 10.6
1 2.34367 -2.75625 -10.8592
1 -2.32434 -2.72967 -10.7719
1 5.59358 13.6204 -0.0109163
1 7.07227 12.8078 2.20024
1 7.07835 12.7508 -2.34922
1 9.29917 11.3789 1.3677
1 9.31575 11.2889 -1.44967
1 -7.19482 12.7194 2.24985
1 -7.07547 12.8322 -2.34032
1 -9.39516 11.1814 1.35047
1 -9.41505 11.3209 -1.46741
1 5.533 -13.7313 -0.196103
1 6.85753 -12.8486 2.26953
1 7.14191 -12.6514 -2.36735
1 9.22287 -11.2914 1.5002
1 9.24699 -11.2487 -1.35576
1 -6.96295 -12.7427 2.28251
1 -6.9763 -12.893 -2.31226
1 -9.27753 -11.3107 1.45443
1 -9.25649 -11.487 -1.43598
1 -0.0538127 5.78024 13.6638
1 2.37494 6.87346 12.8934
1 -2.31781 7.10815 12.8112
1 2.42315 -7.07998 12.7676
1 -2.17011 -7.12386 12.7518
1 -0.0165529 5.56096 -13.7173
1 2.26783 6.98881 -12.7248
1 -2.30132 6.9483 -12.8098
1 2.34386 -7.13556 -12.7543
1 -2.33027 -6.81767 -12.7843
1 13.6464 0.16625 5.4921
1 -13.726 -0.115111 5.54304
1 2.93234 13.7686 -0.133535
1 5.66029 12.1509 4.64713
1 5.53425 12.1365 -4.91098
1 10.4272 9.24386 2.85152
1 10.3831 9.16447 -2.93263
1 -5.80185 12.0561 4.63961
1 -5.79446 12.0408 -4.62776
1 -10.3534 9.16713 2.93899
1 -10.4402 9.2627 -2.84532
1 2.77146 -14.0322 -0.0924416
1 5.68193 -12.1313 4.7244
1 5.59966 -12.2357 -4.72066
1 10.2921 -9.24631 2.97831
1 10.3652 -9.19576 -2.88223
1 -5.6975 -12.0271 4.68668
1 -5.62127 -12.1986 -4.89663
1 -10.3265 -9.15463 2.92684
1 -10.4011 -9.12575 -2.93849
1 0.036282 2.77254 13.9431
1 4.6972 5.59988 12.0181
1 -4.71031 5.74361 12.0953
1 4.75426 -5.72391 12.1414
1 -4.55153 -5.57062 12.0429
1 -0.00354025 2.89016 -14.0459
1 4.79143 5.65459 -12.1673
1 -4.80903 5.72893 -12.0838
1 4.76389 -5.7272 -12.0668
1 -4.79198 -5.61574 -12.2104
1 13.8323 -0.00842054 2.81137
1 -13.8251 0.00610645 2.72858
1 0.0562909 13.9218 -0.0500187
1 4.3474 11.3487 6.91753
1 4.19104 11.2699 -7.08636
1 11.2992 7.0151 4.28612
1 11.3431 6.98827 -4.27559
1 -4.2658 11.3282 6.90798
1 -4.44553 11.4045 -6.85558
1 -11.2906 6.9701 4.3377
1 -11.395 7.08263 -4.2108
1 -0.0296387 -13.9977 -0.101854
1 4.30096 -11.3018 6.95563
1 4.3414 -11.3438 -6.91665
1 11.2497 -6.90056 4.35722
1 11.2063 -6.90863 -4.27804
1 -4.3761 -11.3278 6.93113
1 -4.33572 -11.2206 -6.97844
1 -11.3472 -6.87396 4.31372
1 -11.2929 -6.96486 -4.44556
1 -0.0291447 0.112825 14.0354
1 7.11963 4.19141 11.2477
1 -6.92091 4.32197 11.3352
1 6.9503 -4.37035 11.3737
1 -6.85999 -4.31102 11.316
1 0.109868 0.132893 -14.0648
1 7.01001 4.32615 -11.2711
1 -6.97877 4.27128 -11.3452
1 7.03572 -4.33139 -11.3906
1 -6.96197 -4.19197 -11.3965
1 13.899 0.0428887 0.0888887
1 -13.9156 -0.242592 0.108267
1 -2.71031 13.897 -0.0919074
1 2.94438 10.3566 9.24531
1 2.85907 10.4138 -9.21919
1 11.9861 4.79298 5.78358
1 12.0962 4.67194 -5.6604
1 -2.91867 10.3864 9.13791
1 -3.04412 10.4869 -9.17074
1 -12.0716 4.73533 5.69172
1 -12.0592 4.72465 -5.63511
1 -2.77862 -13.9165 0.0256976
1 2.89885 -10.4338 9.23914
1 2.89249 -10.4197 -9.16969
1 11.8918 -4.64575 5.8523
1 12.136 -4.68873 -5.61085
1 -2.90292 -10.5072 9.08833
1 -2.95715 -10.3173 -9.1478
1 -12.0412 -4.63164 5.7728
1 -12.0817 -4.7874 -5.71597
1 -0.0354714 -2.59059 14.1217
1 9.17089 2.76482 10.3335
1 -9.13674 2.82847 10.3835
1 9.09054 -2.95637 10.4222
1 -9.21362 -2.81943 10.5313
1 -0.0310801 -2.63012 -13.9501
1 9.15538 2.87529 -10.3829
1 -9.20662 2.87797 -10.434
1 9.20305 -2.89916 -10.3671
1 -9.08736 -2.93838 -10.476
1 13.8748 -0.011555 -2.68377
1 -13.907 -0.133331 -2.70169
1 -5.57791 13.7129 0.0306341
1 1.48034 9.29749 11.4617
1 1.39459 9.39287 -11.3177
1 12.6798 2.26687 7.12759
1 12.697 2.28366 -6.99767
1 -1.47423 9.44008 11.3147
1 -1.41868 9.34461 -11.4499
1 -12.7594 2.33644 7.12867
1 -12.911 2.22464 -6.89708
1 -5.49965 -13.7781 0.0130611
1 1.41868 -9.30048 11.4201
1 1.36813 -9.3498 -11.2229
1 12.7921 -2.18846 6.95233
1 12.7937 -2.36881 -6.90662
1 -1.36721 -9.47626 11.2856
1 -1.62421 -9.1419 -11.3342
1 -12.7393 -2.24201 6.96673
1 -12.6896 -2.32842 -6.88031
1 -0.0160428 -5.63207 13.5834
1 11.2463 1.45143 9.37878
1 -11.3057 1.31646 9.37275
1 11.3785 -1.49948 9.30687
1 -11.459 -1.46347 9.3932
1 0.0791413 -5.59062 -13.6214
1 11.2348 1.46102 -9.18632
1 -11.387 1.37166 -9.40196
1 11.3483 -1.37039 -9.19705
1 -11.3611 -1.48006 -9.26845
1 13.6968 0.143544 -5.49422
1 -13.7654 0.0301177 -5.45333
1 4.36756 13.0223 2.30934
1 4.41386 12.9618 -2.30668
1 7.89138 10.7916 3.68463
1 7.97127 10.7052 -3.80497
1 10.3416 9.12838 0.0109632
1 -8.1098 10.6026 3.77595
1 -8.04275 10.6622 -3.6273
1 -10.4897 9.10244 0.0161555
1 4.31798 -12.995 2.42062
1 4.22915 -13.0553 -2.35702
1 7.99262 -10.755 3.81576
1 7.83627 -10.6439 -3.80743
1 10.3726 -9.23266 -0.0303889
1 -8.16248 -10.8611 3.74146
1 -8.01603 -10.6838 -3.7386
1 -10.289 -9.32186 -0.135159
1 2.34732 4.23308 13.0043
1 -2.26386 4.43805 13.0242
1 2.45469 4.37544 -13.0038
1 -2.27223 4.23423 -13.0317
1 3.01968 12.539 4.71502
1 2.90324 12.4768 -4.77269
1 9.24235 8.63261 5.23203
1 9.05836 8.61847 -5.27999
1 11.523 7.1693 -1.3978
1 -9.11212 8.48622 5.37708
1 -9.09601 8.60921 -5.21958
1 -11.4343 7.05956 -1.46269
1 2.90243 -12.4392 4.70508
1 2.8715 -12.4457 -4.78662
1 9.00554 -8.70249 5.34554
1 9.15152 -8.54577 -5.25162
1 11.5857 -7.14062 -1.48748
1 -9.16988 -8.60293 5.43392
1 -8.98318 -8.6885 -5.28358
1 -11.5601 -7.26272 -1.39094
1 4.77741 2.86934 12.4834
1 -4.56325 3.0406 12.4635
1 4.75411 2.92593 -12.4915
1 -4.77819 2.91888 -12.576
1 1.55905 11.5557 7.27857
1 1.41268 11.6076 -7.051
1 9.99265 6.27166 6.81719
1 9.91801 6.29951 -6.94367
1 12.5003 4.69685 -2.93829
1 -9.98189 6.08279 6.9294
1 -10.0569 6.11458 -6.73535
1 -12.4448 4.8135 -2.9827
1 1.49952 -11.5918 7.16315
1 1.42506 -11.4429 -7.11204
1 9.98579 -6.18364 6.78057
1 10.1544 -6.26599 -6.91429
1 12.5761 -4.77 -2.86146
1 -10.1677 -6.24817 6.84234
1 -10.0246 -6.11127 -7.03737
1 -12.4295 -4.79294 -3.04088
1 7.12505 1.36517 11.5984
1 -7.18986 1.43146 11.5068
1 7.20277 1.46086 -11.5974
1 -7.08126 1.34237 -11.5847
1 -0.00835229 10.355 9.28625
1 -0.117975 10.377 -9.299
1 10.671 3.87013 8.12373
1 10.6407 3.85958 -7.89251
1 12.9044 2.38308 -4.31731
1 -10.7735 3.7351 8.00007
1 -10.8046 3.62421 -8.02142
1 -13.0451 2.22539 -4.15599
1 0.0619517 -10.3281 9.27945
1 -0.168425 -10.3289 -9.23267
1 10.5022 -3.68779 8.11069
1 10.7333 -3.71833 -8.20598
1 13.1039 -2.44409 -4.35046
1 -10.5898 -3.67882 8.03058
1 -10.6961 -3.66488 -8.06964
1 -13.0095 -2.36797 -4.24766
1 9.21654 -0.123221 10.4168
1 -9.35229 -0.0644007 10.3878
1 9.30298 -0.0210971 -10.3856
1 -9.14662 0.0444551 -10.4266
1 1.63178 13.3306 2.29565
1 1.59201 13.2134 -2.43446
1 6.78565 10.0482 6.16618
1 6.7541 10.1943 -6.23885
1 11.6363 7.16868 1.45258
1 -6.74847 10.0442 6.19455
1 -6.82487 10.1338 -6.20352
1 -11.5513 7.04153 1.47123
1 1.45148 -13.359 2.324
1 1.56583 -13.4316 -2.4015
1 6.71334 -10.1537 6.22651
1 6.77843 -10.0252 -6.15836
1 11.3375 -7.16037 1.57076
1 -6.85529 -10.1708 6.21742
1 -6.82658 -10.0934 -6.19376
1 -11.463 -7.0981 1.54858
1 2.29696 1.49025 13.3306
1 -2.41793 1.66094 13.5067
1 2.39186 1.61617 -13.4332
1 -2.297 1.6353 -13.4805
1 0.150243 12.1715 4.64225
1 -0.0190286 12.1465 -4.6637
1 7.54371 7.68888 7.46063
1 7.57796 7.62091 -7.63668
1 12.2538 4.76917 -0.0162673
1 -7.49411 7.48643 7.55305
1 -7.57117 7.49084 -7.54546
1 -12.2364 4.67827 0.0699214
1 0.00281929 -12.2133 4.69913
1 0.00787827 -12.1805 -4.62471
1 7.49426 -7.5725 7.55294
1 7.54182 -7.58346 -7.62964
1 12.2632 -4.66823 0.0548197
1 -7.58304 -7.58781 7.57258
1 -7.453 -7.47525 -7.56668
1 -12.2653 -4.78536 -0.0479101
1 4.67755 0.010545 12.1712
1 -4.57824 0.0196975 12.1984
1 4.6975 0.0141723 -12.2062
1 -4.66744 0.0418229 -12.2614
1 -1.42523 11.4939 7.19479
1 -1.48068 11.4733 -7.22295
1 8.52746 5.29892 9.11187
1 8.63601 5.2095 -9.27621
1 13.3173 2.44778 -1.57383
1 -8.63916 5.23499 9.21313
1 -8.6386 5.13186 -9.17796
1 -13.3259 2.4096 -1.37515
1 -1.33468 -11.5251 7.12125
1 -1.46902 -11.4988 -7.18584
1 8.54024 -5.3272 9.28765
1 8.78204 -5.34328 -9.32322
1 13.2978 -2.37008 -1.49845
1 -8.66292 -5.17928 9.0904
1 -8.5969 -5.24631 -9.20675
1 -13.3027 -2.50901 -1.46421
1 7.13113 -1.59229 11.5239
1 -7.15558 -1.39351 11.465
1 7.13978 -1.36363 -11.5365
1 -7.23016 -1.5205 -11.728
1 -1.36484 13.3286 2.25441
1 -1.50774 13.3493 -2.4446
1 5.39736 9.03611 8.64534
1 5.25833 9.18825 -8.51203
1 12.4391 4.7321 2.8718
1 -5.2501 9.13683 8.59542
1 -5.37174 9.13114 -8.63164
1 -12.3127 4.64076 3.01618
1 -1.50045 -13.287 2.36355
1 -1.50465 -13.3907 -2.37363
1 5.19842 -9.2108 8.57433
1 5.305 -9.27617 -8.67887
1 12.4574 -4.74464 3.06996
1 -5.3841 -9.14357 8.63345
1 -5.32139 -9.13816 -8.69246
1 -12.4787 -4.58515 3.02609
1 2.4447 -1.50429 13.4288
1 -2.39509 -1.39273 13.3731
1 2.41561 -1.47857 -13.4919
1 -2.25876 -1.39055 -13.4147
1 -2.94233 12.4776 4.58021
1 -2.95843 12.4573 -4.71525
1 6.30187 6.73479 10.0107
1 6.18344 6.8694 -10.1095
1 13.3987 2.46858 1.50419
1 -6.18843 6.7748 10.0807
1 -6.1954 6.77428 -9.96147
1 -13.3361 2.32671 1.46179
1 -2.99822 -12.4113 4.65315
1 -2.90886 -12.354 -4.80138
1 6.08797 -6.90223 10.0991
1 6.30538 -6.82806 -10.1333
1 13.4955 -2.42644 1.56585
1 -6.16786 -6.78911 10.1126
1 -6.16627 -6.76139 -10.216
1 -13.4767 -2.44858 1.68846
1 4.65851 -2.86523 12.5184
1 -4.73094 -2.82055 12.3802
1 4.75429 -3.02202 -12.4641
1 -4.70512 -2.93104 -12.547
1 -4.28836 13.0128 2.36576
1 -4.29882 12.9094 -2.46936
1 3.82967 8.01717 10.7428
1 3.80447 8.04163 -10.6777
1 12.9738 2.45546 4.36195
1 -3.70238 8.04722 10.6405
1 -3.73477 7.97407 -10.7134
1 -12.9886 2.28218 4.3026
1 -4.32798 -13.0715 2.30906
1 -4.27135 -13.0969 -2.27735
1 3.73766 -8.1824 10.6508
1 3.84911 -8.07769 -10.7157
1 12.9621 -2.22892 4.3866
1 -3.75568 -8.13254 10.6472
1 -3.87534 -7.86138 -10.7618
1 -12.9625 -2.30308 4.32964
1 2.27201 -4.37257 13.0239
1 -2.3753 -4.24526 12.9336
1 2.24537 -4.28679 -12.9619
1 -2.25528 -4.21701 -13.1034
1 1.24614 14.5689 4.67144
1 1.18344 14.475 -4.65241
1 9.15711 9.77445 7.52834
1 9.00848 9.84517 -7.6594
1 13.7689 6.91145 -0.0372555
1 -8.83863 9.82093 7.63114
1 -9.08153 9.7412 -7.56641
1 -13.7085 6.80765 0.0982844
1 1.34223 -14.541 4.67203
1 1.319 -14.6796 -4.71461
1 8.93137 -9.86108 7.66846
1 8.9785 -9.76528 -7.55157
1 13.8711 -6.98367 0.0271736
1 -8.95272 -9.82444 7.89585
1 -9.0283 -9.81476 -7.69822
1 -13.7929 -6.91554 0.113623
1 4.65698 1.25509 14.5811
1 -4.81033 1.39332 14.598
1 4.79955 1.41939 -14.5414
1 -4.75134 1.34824 -14.7202
1 0.203819 13.78 6.85044
1 -0.0867678 13.7428 -6.77033
1 9.67534 7.70937 9.06907
1 9.82946 7.78193 -9.07241
1 14.5311 4.776 -1.33067
1 -9.65872 7.66191 9.08583
1 -9.8283 7.68066 -8.91556
1 -14.5612 4.87574 -1.37271
1 -0.0142716 -13.7589 6.78778
1 0.165459 -13.691 -6.79591
1 9.69609 -7.75887 8.95905
1 9.80204 -7.84743 -9.03089
1 14.5878 -4.68721 -1.21553
1 -9.88959 -7.59955 9.038
1 -9.69545 -7.64747 -9.11241
1 -14.5441 -4.854 -1.33439
1 6.79175 0.0413319 13.7725
1 -6.81655 -0.0456667 13.701
1 6.8436 0.0844319 -13.785
1 -6.86487 -0.0214065 -13.9253
1 -1.3154 14.4555 4.75414
1 -1.50176 14.5284 -4.77274
1 7.69096 9.21108 9.76827
1 7.7855 9.10908 -9.87913
1 14.5947 4.93957 1.38475
1 -7.59513 8.94595 9.79079
1 -7.72283 9.00666 -9.68367
1 -14.5667 4.72053 1.31174
1 -1.45178 -14.5349 4.69478
1 -1.26343 -14.4439 -4.85307
1 7.6467 -8.98537 9.83644
1 7.70269 -9.12951 -9.69974
1 14.5548 -4.85563 1.42324
1 -7.85849 -8.80732 10.0032
1 -7.67284 -8.98701 -9.73371
1 -14.5697 -4.7212 1.23663
1 4.78371 -1.28408 14.5756
1 -4.73773 -1.2973 14.5133
1 4.82121 -1.31347 -14.5463
1 -4.67909 -1.24803 -14.5743
