959
 Atoms. Timestep: 100
1 -4.17491 -7.63241 -11.5901
1 -0.0719923 -7.75237 -11.6316
1 4.13994 -7.7964 -11.4737
1 -7.75079 -4.14633 -11.4246
1 -3.96578 -3.98182 -11.586
1 0.105062 -3.98261 -11.544
1 3.90611 -3.97635 -11.6782
1 7.67825 -4.05913 -11.4154
1 -7.63864 0.0747172 -11.6531
1 -3.91472 0.0102566 -11.5914
1 -0.109508 0.0495761 -11.3481
1 3.88275 -0.0370274 -11.4752
1 7.92099 0.0303007 -11.6613
1 -7.82482 4.10226 -11.5391
1 -3.99046 3.98572 -11.6268
1 0.025725 3.89926 -11.5511
1 4.03939 4.05065 -11.6573
1 7.73385 4.1558 -11.5074
1 -4.21053 7.84188 -11.4215
1 -0.119348 7.73193 -11.6925
1 4.16409 7.86518 -11.4778
1 -4.08494 -11.3952 -7.77807
1 -0.0183089 -11.5219 -7.71748
1 3.99639 -11.4491 -7.63516
1 -8.1021 -8.10661 -8.11566
1 -3.98208 -7.76844 -7.9169
1 0.0465457 -7.76078 -7.93396
1 3.89476 -7.83686 -7.8701
1 7.99313 -8.01073 -8.09499
1 -11.3941 -4.17359 -7.73101
1 -7.80172 -3.91786 -7.83564
1 -3.95507 -3.97679 -7.79301
1 -0.0525069 -3.9434 -7.70254
1 4.01935 -3.98927 -7.74068
1 7.74147 -3.94686 -7.85526
1 11.4797 -4.07315 -7.73969
1 -11.6163 -0.103303 -7.88401
1 -7.84112 -0.0204619 -7.89342
1 -4.02818 0.0468841 -7.74427
1 -0.0264661 0.00771414 -7.81134
1 4.01632 -0.0179728 -7.69536
1 7.94787 0.0335425 -7.89711
1 11.6099 0.0697554 -7.71394
1 -11.409 4.14949 -7.7268
1 -7.79176 4.00103 -7.94646
1 -3.94666 3.97194 -7.83653
1 0.0699237 3.99147 -7.75377
1 4.01171 4.03218 -7.85699
1 7.85521 3.98537 -7.89857
1 11.4649 4.16476 -7.82591
1 -8.1197 8.15694 -8.09723
1 -3.88647 7.91459 -7.81299
1 0.0119986 7.88146 -7.81896
1 3.95391 7.80192 -7.9067
1 8.03072 8.06307 -8.07632
1 -4.14247 11.5681 -7.65412
1 0.0871887 11.6439 -7.88379
1 4.15575 11.6775 -7.81303
1 -7.66626 -11.5202 -4.19015
1 -3.88976 -11.6473 -4.06661
1 0.00639043 -11.4264 -3.91553
1 4.00524 -11.5758 -3.87525
1 7.72556 -11.4816 -4.14273
1 -11.5163 -7.74142 -4.10941
1 -7.8481 -8.00902 -3.96469
1 -3.92298 -7.77781 -4.02374
1 -0.0126425 -7.67519 -3.9448
1 3.97676 -7.78246 -4.04435
1 7.81407 -7.89713 -3.9163
1 11.5322 -7.71601 -4.07427
1 -11.6034 -3.98555 -3.97319
1 -7.7677 -3.99834 -4.02497
1 -3.91761 -3.89469 -3.93456
1 -0.0423363 -3.86641 -3.96274
1 3.96125 -4.0049 -3.94624
1 7.78763 -4.03307 -3.97063
1 11.633 -4.01362 -3.97457
1 -11.5591 -0.0829593 -4.10684
1 -7.69078 0.00414031 -4.00709
1 -3.95656 0.105518 -4.0675
1 0.0843289 0.0531449 -4.07325
1 3.99723 0.0219437 -3.98506
1 7.71452 0.0317152 -3.96264
1 11.5386 0.139572 -4.04085
1 -11.6141 3.8206 -3.99511
1 -7.80562 3.99749 -4.0786
1 -3.87854 3.91939 -3.95131
1 0.0349913 4.06706 -3.95447
1 3.99914 3.98575 -3.97463
1 7.85381 4.00648 -4.00181
1 11.6392 3.94385 -3.95544
1 -11.4788 7.73543 -4.12644
1 -7.89906 7.78357 -3.86416
1 -4.01822 7.79522 -4.05964
1 0.0330957 7.6933 -3.9759
1 4.03773 7.81493 -4.03717
1 7.92402 7.8338 -3.85047
1 11.5481 7.70703 -4.13365
1 -7.69964 11.5628 -4.15926
1 -3.88434 11.5088 -3.92459
1 -0.057967 11.5766 -3.86082
1 4.02481 11.5458 -3.88173
1 7.74699 11.5046 -4.22555
1 -7.88018 -11.5239 0.0379315
1 -4.0058 -11.4683 0.0564366
1 0.0847827 -11.2867 0.0406376
1 3.89288 -11.4577 -0.0872883
1 7.68655 -11.587 0.0968302
1 -11.6114 -7.77703 0.0650439
1 -7.83557 -7.85854 -0.0366116
1 -4.01082 -7.66855 -0.0324835
1 0.0272236 -7.79291 0.0354297
1 4.00409 -7.70716 -0.0230946
1 7.81108 -7.84769 -0.0355128
1 11.4388 -7.91446 0.159079
1 -11.5019 -4.01216 -0.00569897
1 -7.68454 -3.92658 0.0107592
1 -3.97742 -3.97438 0.014345
1 -0.0431804 -3.96747 0.0331773
1 3.91142 -4.00708 -0.0100671
1 7.6734 -4.01022 -0.0234061
1 11.4949 -4.00533 -0.0223433
1 -11.3619 -0.00604092 -0.0283206
1 -7.70558 0.0175066 -0.00332534
1 -4.02775 -0.121042 -0.00379272
1 0.0816892 0.0383911 0.00794088
1 4.01688 -0.0371188 0.0268409
1 7.74998 0.00155198 -0.0968518
1 11.3651 -0.137537 -0.161826
1 -11.5883 3.96985 -0.0283656
1 -7.6893 3.95069 -0.000385514
1 -3.92081 3.89267 -0.0181166
1 0.0204232 3.99951 0.0358289
1 3.93192 3.92852 -0.0165852
1 7.69425 3.94133 -0.0496712
1 11.5798 4.02047 -0.00961465
1 -11.6775 7.70371 0.0278596
1 -7.79219 7.74282 -0.038907
1 -3.931 7.64256 0.0196322
1 0.0383536 7.78674 0.033895
1 3.89372 7.70646 -0.011306
1 7.88465 7.79761 -0.0271594
1 11.5154 7.93679 -0.0079454
1 -7.87353 11.4708 0.0173237
1 -4.05761 11.4293 -0.0176552
1 -0.0469244 11.3669 0.0620484
1 4.02178 11.4972 -0.078527
1 7.8041 11.4766 -0.140006
1 -7.72099 -11.4179 4.18385
1 -3.99763 -11.6909 4.06122
1 -0.0326661 -11.5179 3.99402
1 3.87357 -11.5522 4.03589
1 7.64335 -11.4798 4.13347
1 -11.4986 -7.75019 4.20231
1 -7.87142 -7.86513 4.00415
1 -3.94594 -7.78129 4.03601
1 0.00913977 -7.69928 4.00862
1 3.97689 -7.78692 4.07829
1 7.75709 -7.7851 3.93927
1 11.5377 -7.85637 4.22878
1 -11.6707 -4.06212 3.99645
1 -7.82229 -4.00323 3.95247
1 -3.9115 -3.93747 3.94295
1 -0.0463507 -3.91852 4.00308
1 3.95879 -3.94837 3.98255
1 7.79227 -4.04766 3.98912
1 11.5671 -3.96998 3.96717
1 -11.5406 -0.0551544 3.93239
1 -7.72573 -0.026077 3.94556
1 -3.94778 0.0523857 3.93962
1 0.00430962 0.029986 3.99374
1 3.98319 -0.000975914 3.92819
1 7.76552 0.0158254 3.94147
1 11.4309 -0.0188987 3.91981
1 -11.5095 3.86738 3.89745
1 -7.75266 3.88685 4.01631
1 -3.92169 3.96375 3.9158
1 -0.000229311 3.92 4.02312
1 3.99028 3.90488 3.95346
1 7.79744 4.08266 4.09203
1 11.667 3.92037 3.92004
1 -11.5148 7.61974 4.12167
1 -7.78047 7.84658 3.89738
1 -4.0033 7.71793 4.01326
1 0.0122216 7.67703 3.98523
1 4.00426 7.69854 4.00678
1 7.86157 7.80796 3.97232
1 11.5351 7.83167 4.1084
1 -7.72422 11.3701 4.20147
1 -3.96436 11.5192 4.01268
1 0.088887 11.5278 3.95369
1 4.02166 11.6365 3.94161
1 7.65751 11.497 4.02894
1 -4.07153 -11.5179 7.8361
1 0.128993 -11.5361 7.94166
1 4.09294 -11.4684 7.88786
1 -8.09145 -8.0934 8.23362
1 -4.04703 -7.83416 7.89279
1 0.00666101 -7.81384 7.9641
1 3.98076 -7.78995 7.93126
1 8.07203 -8.03126 8.11035
1 -11.5312 -4.18113 7.67318
1 -7.80143 -3.85676 7.77585
1 -4.04692 -3.90656 7.80974
1 0.00757147 -3.89826 7.74769
1 3.99245 -3.96073 7.76414
1 7.80497 -3.93318 7.9036
1 11.4634 -4.12318 7.70848
1 -11.5932 -0.169939 7.79441
1 -7.84017 0.0300499 7.94797
1 -3.94627 0.0279122 7.74277
1 0.021814 0.00435935 7.78152
1 3.99902 -0.0120348 7.741
1 7.84557 0.121655 7.83274
1 11.578 -0.0368466 7.84657
1 -11.5739 4.13725 7.68518
1 -7.80939 3.90528 7.8996
1 -3.99311 4.03562 7.81122
1 0.0175592 3.96227 7.68415
1 3.98203 3.97839 7.89967
1 7.82507 3.81135 7.85316
1 11.4494 4.10534 7.67314
1 -8.15618 8.01853 8.08727
1 -3.84501 7.74971 7.81924
1 0.00602475 7.88228 7.77571
1 3.90756 7.96449 7.83087
1 8.06396 8.13104 8.03469
1 -4.23165 11.4138 7.85831
1 -0.00108066 11.6465 7.89615
1 4.16436 11.5032 7.75788
1 -4.0433 -7.73163 11.5447
1 -0.00988803 -7.68783 11.6658
1 4.02863 -7.62712 11.5535
1 -7.75803 -4.21823 11.4103
1 -4.04469 -3.93797 11.6809
1 0.0210262 -3.89728 11.6484
1 3.97261 -3.91873 11.564
1 7.7579 -4.11611 11.484
1 -7.79739 -0.0360412 11.7114
1 -3.88704 -0.095292 11.5873
1 0.0481992 0.0701856 11.4044
1 3.98866 0.105817 11.4982
1 7.71454 -0.1347 11.5943
1 -7.81589 4.1386 11.5065
1 -4.04991 3.81568 11.7143
1 -0.0293764 4.00133 11.439
1 3.98519 3.96082 11.6257
1 7.78581 4.1483 11.4527
1 -4.29721 7.67566 11.5475
1 -0.0489741 7.63397 11.6623
1 4.19855 7.70656 11.5394
1 -6.08364 -6.02405 -11.6073
1 -2.03989 -5.96379 -11.7334
1 2.00319 -6.09575 -11.8693
1 6.00932 -5.95825 -11.5115
1 -5.99337 -1.97896 -11.7027
1 -2.01228 -2.11318 -11.5457
1 2.02139 -1.92819 -11.4182
1 6.01852 -1.94646 -11.7151
1 -5.97735 2.11842 -11.9367
1 -2.01851 2.00794 -11.5558
1 2.00566 2.0951 -11.4294
1 5.95944 2.00727 -11.7389
1 -6.02548 6.00561 -11.4597
1 -2.1325 6.05768 -11.8313
1 2.05916 6.20059 -11.8584
1 5.99099 6.06575 -11.3801
1 -6.19239 -9.81342 -8.0211
1 -2.01707 -9.79202 -8.01269
1 1.92526 -9.85483 -7.93769
1 6.15392 -9.84689 -8.01176
1 -9.83869 -6.17949 -8.08592
1 -6.03465 -6.00094 -7.94258
1 -1.96878 -5.89962 -7.81714
1 2.04351 -5.88621 -7.82317
1 5.9611 -5.98248 -7.98321
1 9.79743 -6.13204 -8.0099
1 -9.84428 -2.04253 -8.05243
1 -5.85408 -1.98868 -7.8358
1 -2.05833 -1.96591 -7.79267
1 2.00453 -2.01469 -7.72888
1 5.89048 -2.01668 -7.74813
1 9.82728 -2.04303 -7.99107
1 -9.94991 1.97069 -8.11064
1 -5.84063 2.06258 -7.79725
1 -1.99548 2.01727 -7.81137
1 2.00595 1.94515 -7.74975
1 5.93518 2.00512 -7.83293
1 9.78868 2.03795 -7.95316
1 -9.83244 6.23519 -7.96609
1 -6.03894 5.97702 -8.02876
1 -1.98673 5.89838 -7.8243
1 2.0376 5.8432 -7.69031
1 6.00685 5.98416 -8.06907
1 9.87472 6.23658 -8.06046
1 -6.13904 9.80061 -8.02673
1 -1.98911 9.98842 -8.0995
1 2.04369 9.86406 -7.90945
1 6.13688 9.83116 -7.95319
1 -1.94062 -13.4999 -3.80284
1 1.90754 -13.3731 -3.85656
1 -9.75857 -9.74649 -4.24534
1 -5.75154 -9.65385 -4.0113
1 -1.92886 -9.61976 -3.91869
1 1.89005 -9.55553 -3.90277
1 5.85272 -9.77205 -3.77739
1 9.70972 -9.71997 -4.20918
1 -9.63479 -5.89023 -3.88528
1 -5.87973 -5.89791 -4.05153
1 -1.95261 -5.8645 -3.88398
1 1.95407 -5.85707 -3.92512
1 5.99339 -6.02725 -4.09005
1 9.77166 -5.88944 -3.93706
1 -13.4101 -2.11288 -4.02959
1 -9.65136 -1.9475 -3.94868
1 -5.86167 -1.99903 -3.99025
1 -1.98316 -1.87369 -4.03276
1 1.98275 -2.03598 -3.98083
1 5.88175 -2.00262 -3.90017
1 9.67101 -1.94201 -4.04715
1 13.3974 -2.01055 -3.93974
1 -13.4638 1.86318 -3.92819
1 -9.63398 1.9253 -3.91872
1 -5.81368 2.09611 -3.94253
1 -1.89887 2.03447 -4.02018
1 2.09567 2.04111 -3.95369
1 5.95226 2.01325 -4.00036
1 9.66268 1.99038 -3.93781
1 13.4444 2.01657 -3.83065
1 -9.69646 5.90025 -3.82414
1 -5.90226 5.8755 -3.9653
1 -2.06711 5.9558 -3.95734
1 2.04975 5.93407 -3.95046
1 5.90596 5.86801 -4.03668
1 9.72291 5.88923 -3.91625
1 -9.71815 9.72091 -4.06037
1 -5.8524 9.61272 -3.83622
1 -1.8578 9.62756 -3.88956
1 1.95713 9.70555 -4.03063
1 5.97663 9.68673 -3.99364
1 9.78923 9.66588 -4.24862
1 -1.94245 13.5066 -3.85495
1 2.06525 13.3955 -3.95252
1 -5.76877 -13.3202 -0.0270715
1 -1.96474 -13.2417 0.0906942
1 1.86223 -13.3035 -0.0451866
1 5.65931 -13.3956 0.0249395
1 -9.79144 -9.73416 0.0569679
1 -5.88096 -9.66481 0.00851641
1 -2.02139 -9.52591 0.0943357
1 1.99006 -9.55921 0.0424557
1 5.81989 -9.67014 -0.0759344
1 9.5915 -9.76909 0.109354
1 -13.5041 -5.75427 -0.0298342
1 -9.64855 -5.9273 0.0059348
1 -5.9072 -5.94041 0.014781
1 -2.04858 -5.94428 -0.0730462
1 1.93283 -5.91029 0.0185941
1 5.82356 -5.88972 -0.0405461
1 9.67448 -5.9331 0.213393
1 13.4491 -5.67995 0.0202643
1 -13.3215 -1.87251 -0.114073
1 -9.63316 -1.96793 -0.0996659
1 -5.90447 -1.96729 -0.00104939
1 -2.00533 -1.9452 -0.0564314
1 2.04221 -2.05884 -0.0840651
1 5.86263 -1.9762 -0.0114599
1 9.61093 -2.0242 -0.0243365
1 13.3128 -1.96193 -0.00728247
1 -13.295 1.74683 -0.0315215
1 -9.60543 2.01954 -0.0123859
1 -5.89564 1.95386 -0.0206038
1 -1.93089 1.96914 -0.0783092
1 2.06071 1.96463 -0.00200515
1 5.9194 2.04697 0.0228322
1 9.63937 1.96756 -0.0495636
1 13.3174 1.72501 0.0127177
1 -13.4202 5.70489 0.00599111
1 -9.72622 5.95936 -0.0342294
1 -5.83699 5.81249 0.0427644
1 -1.96068 5.82084 -0.0330663
1 1.86976 5.8023 0.00816424
1 5.8699 5.87528 0.0123055
1 9.67503 5.8593 0.0102765
1 13.4145 5.81395 -0.0913277
1 -9.68443 9.5847 0.0573975
1 -5.92705 9.62357 0.0329577
1 -2.02891 9.60688 0.00477886
1 2.03248 9.60769 -0.0316281
1 5.90026 9.61064 0.0409807
1 9.70314 9.76492 0.0163577
1 -5.75985 13.5152 0.139856
1 -2.0179 13.2287 0.126294
1 1.87624 13.2083 -0.0785197
1 5.82071 13.3968 -0.092003
1 -2.05191 -13.3474 3.7976
1 1.97928 -13.2741 3.82189
1 -9.71878 -9.74649 4.13461
1 -5.80685 -9.71059 3.89782
1 -1.92601 -9.54892 3.95071
1 1.88653 -9.62478 3.93844
1 5.82646 -9.70784 3.95428
1 9.67458 -9.76601 4.22798
1 -9.76982 -5.94878 3.89453
1 -5.84001 -5.82843 3.99789
1 -1.96067 -5.88782 4.01158
1 1.97017 -5.90225 3.99233
1 5.87451 -5.80678 4.00753
1 9.7101 -5.9965 3.87683
1 -13.4014 -2.07424 3.7967
1 -9.62757 -1.98575 3.97031
1 -5.83663 -2.02427 3.8727
1 -2.00669 -1.96329 3.9668
1 1.98371 -1.98313 3.9427
1 5.95335 -1.91865 3.93653
1 9.56364 -2.04706 3.96218
1 13.2997 -2.03346 3.87489
1 -13.4184 1.91756 3.80692
1 -9.64804 1.88061 4.0162
1 -5.86536 1.99232 3.95144
1 -1.96734 2.01391 3.94489
1 2.08451 1.96061 3.96987
1 5.92343 2.01876 3.87001
1 9.59827 1.97919 3.8816
1 13.3614 1.94371 3.74301
1 -9.60358 5.80553 4.08449
1 -5.94961 5.91158 4.0126
1 -1.99499 5.89725 3.90984
1 1.94997 5.81082 3.89473
1 5.88899 5.87506 4.03751
1 9.77688 5.84844 3.83807
1 -9.77953 9.63204 4.15362
1 -5.86768 9.63242 3.95315
1 -1.86348 9.56795 3.92914
1 2.05976 9.57954 3.95019
1 5.82248 9.60716 3.91517
1 9.69229 9.83648 4.13286
1 -2.05465 13.2933 3.97385
1 2.02752 13.3252 3.78967
1 -6.20109 -9.92028 8.15185
1 -1.91244 -9.95628 8.01661
1 2.03506 -9.73675 8.00718
1 6.10669 -9.77851 8.11567
1 -9.92869 -6.34153 8.13407
1 -6.11022 -5.96403 7.94602
1 -2.11205 -5.87458 7.82718
1 1.95038 -5.84674 7.79638
1 6.05654 -5.94855 7.96436
1 9.86568 -6.18165 8.11245
1 -9.87152 -2.07593 8.01384
1 -5.79837 -1.97589 7.79786
1 -1.93726 -1.95282 7.78605
1 1.99662 -1.97691 7.81745
1 5.8417 -1.97866 7.79411
1 9.78535 -1.99772 7.88338
1 -9.82723 1.99419 8.0516
1 -5.83717 1.96972 7.74001
1 -2.01369 1.93954 7.81208
1 1.99648 1.92068 7.75428
1 5.86353 2.07682 7.78985
1 9.95804 2.04162 8.04318
1 -9.86366 6.1334 8.01163
1 -6.06349 5.98171 8.06414
1 -2.03694 5.92741 7.73578
1 2.04615 5.78776 7.69021
1 5.96246 6.02702 7.98775
1 9.92389 6.12368 7.93116
1 -6.29649 9.76073 8.14366
1 -2.09839 9.92823 8.09759
1 2.00333 9.89863 8.07936
1 6.2229 9.88733 8.06731
1 -6.06186 -6.09443 11.4778
1 -1.9255 -5.8606 11.6136
1 1.95004 -5.92699 11.759
1 6.00153 -5.99786 11.5101
1 -6.11856 -2.08465 11.9586
1 -1.9813 -2.00274 11.5478
1 1.96338 -1.89987 11.4944
1 5.92791 -2.10156 11.7473
1 -6.02343 1.91109 11.7044
1 -1.99784 2.06388 11.4533
1 2.06623 2.10401 11.4433
1 6.16486 2.01714 11.8081
1 -6.02602 5.92601 11.5217
1 -2.08447 6.01551 11.792
1 1.99359 6.0407 11.7284
1 5.976 6.01728 11.4319
1 -5.96932 -11.5398 -6.16307
1 -1.98834 -11.7339 -6.05292
1 2.05029 -11.7304 -5.89868
1 5.86666 -11.4658 -5.92453
1 -6.00515 -11.6984 -2.02747
1 -1.99442 -11.4687 -1.92401
1 2.01508 -11.4914 -2.05448
1 6.10545 -11.7986 -1.97931
1 -6.1285 -11.5912 1.95108
1 -2.11929 -11.4887 2.10647
1 2.0045 -11.4683 1.9921
1 5.96548 -11.7612 2.09265
1 -5.89149 -11.3997 6.06133
1 -2.01615 -11.7929 6.06955
1 1.97192 -11.5987 6.04942
1 5.86243 -11.3817 6.09165
1 -6.30524 -8.04972 -9.85533
1 -2.10183 -8.02286 -9.88991
1 1.98778 -7.83571 -9.88055
1 6.11751 -8.04408 -9.83928
1 -9.8659 -8.03785 -6.19708
1 -6.01291 -7.91585 -6.07093
1 -1.96358 -7.78257 -5.82187
1 2.00593 -7.72395 -5.88653
1 5.92636 -8.04568 -6.0009
1 9.78661 -8.00669 -6.20794
1 -9.94789 -8.06682 -1.97043
1 -5.82804 -7.76701 -2.14497
1 -1.96491 -7.80121 -1.93884
1 2.01873 -7.73133 -1.98411
1 5.83677 -7.77504 -2.11066
1 9.89601 -8.01469 -1.9652
1 -9.96004 -7.93005 2.13457
1 -5.96121 -7.77365 2.04353
1 -2.00613 -7.63496 1.96643
1 1.98416 -7.67108 2.03747
1 5.81033 -7.68546 2.02466
1 9.86856 -8.03262 2.12663
1 -9.81022 -8.05227 6.22036
1 -5.98241 -7.98196 6.07341
1 -1.95291 -7.78335 6.02895
1 1.96566 -7.8375 5.96103
1 6.02055 -8.04104 6.00484
1 9.70626 -8.113 6.24634
1 -6.14816 -8.11963 9.96288
1 -1.95705 -7.94259 9.74269
1 2.0462 -7.93544 10.0089
1 6.15659 -7.99104 9.80456
1 -2.06465 -3.95019 -13.4334
1 1.93571 -3.78799 -13.3954
1 -9.75976 -4.11419 -9.70198
1 -5.86542 -3.93388 -9.70473
1 -1.91293 -3.92504 -9.60786
1 1.97752 -3.85836 -9.64633
1 5.75047 -3.87277 -9.68295
1 9.68081 -4.20865 -9.79545
1 -9.62904 -3.9117 -5.84111
1 -5.87677 -3.98115 -5.91363
1 -2.04985 -3.95325 -5.8126
1 1.96676 -3.94693 -5.91723
1 5.91685 -4.0405 -5.89269
1 9.65033 -3.90002 -5.82736
1 -13.3154 -3.8869 -2.01746
1 -9.60125 -3.95375 -1.95264
1 -5.80491 -3.94787 -2.04744
1 -2.04855 -3.96709 -1.96335
1 1.9664 -4.03969 -2.03221
1 5.88365 -3.98021 -2.05578
1 9.64736 -3.95923 -1.98518
1 13.3898 -3.91575 -2.01396
1 -13.4072 -3.85353 1.93266
1 -9.64183 -3.93979 1.89632
1 -5.89698 -3.95433 1.98254
1 -1.9788 -3.99582 2.0597
1 1.98172 -3.96221 1.94108
1 5.81949 -3.92448 1.94391
1 9.58124 -3.89373 1.94524
1 13.2645 -3.86869 1.98333
1 -9.69875 -3.88217 5.86245
1 -5.94312 -4.02733 5.95983
1 -2.04264 -3.92339 5.93806
1 1.89959 -3.94302 5.87936
1 5.92766 -3.92227 5.90738
1 9.68059 -4.04738 5.88185
1 -9.7002 -4.20009 9.59336
1 -5.92683 -3.83937 9.73533
1 -2.00479 -3.93254 9.76068
1 1.95161 -3.85252 9.69678
1 5.86652 -3.88013 9.70882
1 9.67498 -4.10424 9.80655
1 -1.98834 -3.81976 13.4491
1 1.99753 -3.86329 13.3932
1 -5.63842 0.0492867 -13.5359
1 -1.93423 -0.0885551 -13.3621
1 1.7618 0.0339927 -13.2282
1 5.76227 0.0375163 -13.4087
1 -9.62287 -0.0395258 -9.86141
1 -5.84717 0.0163426 -9.68275
1 -2.09074 -0.146586 -9.68102
1 2.07411 0.039351 -9.60238
1 5.99428 -0.0850095 -9.76394
1 9.78921 0.0703381 -9.71167
1 -13.4791 -0.0699806 -5.86734
1 -9.70411 0.00112797 -6.01225
1 -5.89607 0.030455 -5.8772
1 -1.97098 0.056761 -5.9593
1 1.98696 0.0218936 -5.83958
1 5.8936 0.0343381 -5.85688
1 9.70101 0.0932984 -5.89906
1 13.5618 0.0931523 -5.6091
1 -13.276 -0.0658117 -1.94351
1 -9.57352 -0.0156817 -2.01128
1 -5.86722 0.0517412 -1.98686
1 -2.01837 0.034713 -2.06302
1 2.12846 -0.000868343 -2.0555
1 5.87535 -0.0631432 -1.99355
1 9.66897 -0.0903776 -2.11194
1 13.3734 -0.0471347 -1.8565
1 -13.3565 -0.0668948 1.84199
1 -9.59863 -0.0609607 1.99995
1 -5.81749 -0.046853 1.9969
1 -1.99285 -0.0368967 1.97352
1 2.08741 -0.0495157 2.02177
1 5.96425 0.032153 1.96819
1 9.60442 0.00218609 1.9909
1 13.2497 -0.126719 1.87554
1 -13.3502 0.0588332 5.77568
1 -9.60769 -0.0286574 5.92279
1 -5.77874 0.00775888 5.82256
1 -1.96205 0.001808 5.90516
1 2.02416 -0.0649781 5.82993
1 5.8299 0.0331055 5.85308
1 9.7301 0.0449842 5.93033
1 13.3295 0.00778258 5.70079
1 -9.74689 0.026707 9.80038
1 -5.86419 -0.0186262 9.80067
1 -2.0146 0.0158717 9.67002
1 2.02594 0.0647784 9.6539
1 5.91876 -0.00105847 9.65868
1 9.66331 -0.0897901 9.7153
1 -5.70283 -0.0237463 13.5046
1 -1.81026 0.0345426 13.4247
1 1.85475 0.0713871 13.2589
1 5.80554 -0.0444029 13.5007
1 -2.02652 3.92783 -13.4379
1 2.01992 3.84044 -13.4377
1 -9.74962 4.16791 -9.74767
1 -5.89684 3.86013 -9.75448
1 -1.8727 3.96345 -9.6914
1 1.97208 3.94775 -9.60444
1 5.80446 3.86638 -9.75269
1 9.75384 4.18979 -9.76414
1 -9.64118 3.95149 -5.89957
1 -5.9281 4.03313 -5.97799
1 -1.95872 3.95194 -5.87477
1 2.02181 3.90687 -5.83753
1 5.97367 4.0777 -5.96766
1 9.87242 3.96502 -5.84943
1 -13.4036 3.89019 -2.03149
1 -9.60078 3.8769 -1.98234
1 -5.79487 3.91239 -1.9601
1 -2.01287 3.97694 -2.04183
1 1.91555 4.05667 -2.03301
1 5.91776 3.94785 -2.06876
1 9.71219 3.9087 -2.01277
1 13.4389 3.91907 -2.06179
1 -13.4263 3.75108 1.95449
1 -9.64003 3.93483 1.99695
1 -5.87274 3.88757 2.03441
1 -1.90903 3.92396 1.89554
1 1.99919 3.95723 2.00931
1 5.91817 3.99793 1.97788
1 9.65622 3.87947 1.93759
1 13.4149 3.8253 1.9799
1 -9.67826 3.84453 5.95056
1 -5.88464 4.05744 5.99467
1 -1.92511 4.01792 5.85379
1 2.04477 3.85259 5.8365
1 5.88248 4.04222 5.96324
1 9.77621 3.80115 5.80734
1 -9.77597 4.09839 9.71512
1 -5.82892 3.81356 9.73126
1 -1.98111 4.01444 9.58612
1 1.92109 4.05359 9.58608
1 5.90762 3.81048 9.76195
1 9.70069 4.11681 9.73665
1 -1.97442 3.86383 13.3826
1 2.01398 3.97003 13.3889
1 -6.25139 8.11148 -9.79117
1 -1.99312 7.99224 -9.90944
1 1.99081 8.00352 -9.94902
1 6.09677 8.13186 -9.80544
1 -9.857 8.14994 -6.30765
1 -6.01543 7.99598 -6.0385
1 -2.07002 7.81868 -5.84833
1 2.00627 7.91793 -5.90908
1 5.99193 7.99262 -5.96535
1 9.87303 8.02307 -6.19918
1 -9.95769 8.02164 -2.01045
1 -5.90049 7.71862 -1.97708
1 -1.85638 7.7652 -1.95958
1 1.98543 7.70986 -2.00902
1 5.86082 7.71658 -1.97254
1 9.92597 8.08155 -2.09735
1 -9.89246 7.88341 2.022
1 -5.8805 7.76575 2.08216
1 -1.9518 7.76134 1.97183
1 1.9353 7.75272 2.00217
1 5.92269 7.76436 2.04444
1 9.87927 8.04633 2.04706
1 -9.88096 8.00697 6.17402
1 -5.95143 7.98822 6.08134
1 -1.97286 7.74649 5.85431
1 2.06242 7.72748 5.80479
1 6.12763 7.95953 6.0255
1 9.76068 8.05297 6.09573
1 -6.33717 8.03816 9.95453
1 -2.07534 7.98067 9.89561
1 2.05743 7.98096 9.91582
1 6.27541 8.07413 9.82603
1 -5.95461 11.4395 -5.94906
1 -1.95695 11.8053 -6.06237
1 1.96857 11.6702 -5.94656
1 6.01392 11.5107 -5.97544
1 -6.02839 11.7207 -1.86386
1 -2.04834 11.5017 -1.96489
1 1.95252 11.553 -2.07264
1 6.09254 11.7202 -2.11631
1 -6.1023 11.6684 2.02715
1 -2.08261 11.456 2.02517
1 2.02139 11.4611 1.981
1 6.08065 11.6338 1.98017
1 -6.02084 11.289 6.07631
1 -2.03504 11.6981 6.00383
1 2.06217 11.7 6.14785
1 5.99677 11.5297 6.04337
1 -11.4535 -5.95897 -5.94253
1 -11.6789 -2.07262 -6.12807
1 -11.651 1.94717 -5.94716
1 -11.4388 6.02943 -5.9382
1 -11.6173 -6.0154 -1.99038
1 -11.4808 -1.95754 -2.07001
1 -11.507 1.93306 -2.05395
1 -11.7014 6.05577 -2.00645
1 -11.8033 -5.99311 2.0843
1 -11.5097 -2.03582 1.95378
1 -11.4326 1.90707 1.96922
1 -11.7568 5.88264 2.06551
1 -11.4898 -6.05798 5.95178
1 -11.7329 -2.05553 5.99706
1 -11.6587 1.95807 5.93623
1 -11.5028 5.92716 5.94159
1 -7.97025 -6.13533 -9.85734
1 -7.93398 -1.98047 -9.90324
1 -8.0123 2.00785 -9.94661
1 -8.06228 6.23325 -9.80542
1 -8.01317 -9.85499 -6.17328
1 -7.98097 -6.06599 -5.99956
1 -7.76165 -2.04699 -5.90374
1 -7.76971 2.01234 -5.86704
1 -7.98391 6.10653 -6.01945
1 -8.05104 9.83555 -6.16933
1 -8.0827 -9.97899 -2.10386
1 -7.77336 -5.96433 -2.08498
1 -7.73456 -1.9143 -2.02825
1 -7.72339 2.05548 -2.03729
1 -7.71229 5.76481 -2.03833
1 -8.07148 9.84379 -2.03223
1 -8.05647 -9.75821 2.13353
1 -7.78019 -5.88048 2.01372
1 -7.80413 -2.01274 1.8973
1 -7.70106 1.91881 2.05767
1 -7.82591 5.83018 2.02734
1 -8.09904 9.83252 2.00111
1 -8.04654 -9.85209 6.19697
1 -7.90216 -5.97809 5.92181
1 -7.65575 -2.01857 5.78446
1 -7.73081 2.04044 5.9508
1 -7.97185 5.96856 6.06722
1 -8.15658 9.79718 6.25198
1 -8.20136 -6.32111 9.93203
1 -8.03839 -2.03978 10.0013
1 -8.08384 1.91206 10.0305
1 -8.10463 6.11376 9.87003
1 -3.92271 -2.14521 -13.42
1 -3.7892 1.94929 -13.52
1 -4.16096 -9.64871 -9.82128
1 -3.95901 -5.81777 -9.69494
1 -3.98014 -1.97613 -9.72333
1 -3.9501 1.93419 -9.68915
1 -3.86493 5.95614 -9.66094
1 -4.04264 9.80871 -9.73089
1 -3.80129 -9.68011 -5.88401
1 -3.97594 -5.97753 -5.93972
1 -3.9406 -1.96788 -5.85197
1 -3.89853 2.04477 -5.96385
1 -4.05232 5.9419 -5.95708
1 -3.85242 9.75387 -5.89588
1 -3.824 -13.3475 -1.9909
1 -3.934 -9.71064 -1.99653
1 -3.95799 -5.8928 -2.00229
1 -3.94526 -1.90806 -2.05251
1 -3.92041 1.97673 -2.01365
1 -3.89092 5.80614 -1.92744
1 -3.87293 9.54585 -1.99524
1 -3.98726 13.3878 -1.98983
1 -3.97884 -13.3528 1.98278
1 -3.87349 -9.53473 2.02571
1 -3.91352 -5.88009 2.01245
1 -3.97157 -2.07302 2.00514
1 -3.9024 1.99821 1.98796
1 -3.83466 5.79103 1.97715
1 -3.91893 9.5457 1.97623
1 -3.96273 13.2659 2.078
1 -3.75733 -9.74925 5.83382
1 -4.02854 -5.89751 5.92024
1 -3.90885 -1.95853 5.87444
1 -3.87406 2.05417 5.81567
1 -4.08269 5.89549 5.97159
1 -3.8522 9.60366 5.91728
1 -4.08431 -9.77533 9.78987
1 -3.92809 -5.95548 9.75785
1 -3.94256 -2.02876 9.67519
1 -3.93792 1.92474 9.66901
1 -3.93154 5.88727 9.71034
1 -4.12764 9.64687 9.76385
1 -3.84872 -1.99176 13.4881
1 -3.79523 1.89868 13.4439
1 -0.0326455 -5.67644 -13.4372
1 -0.048904 -1.89209 -13.2123
1 0.032601 1.92026 -13.3063
1 -0.0452113 5.68579 -13.5015
1 -0.0209832 -9.63573 -9.69028
1 -0.0597462 -5.83552 -9.694
1 -0.00344591 -2.00913 -9.59734
1 0.0191935 2.03153 -9.62214
1 0.157197 5.95612 -9.76435
1 0.0102972 9.65708 -9.73297
1 -0.0529651 -13.3759 -5.67067
1 -0.105523 -9.63819 -5.86533
1 -0.018968 -5.76169 -5.7879
1 -0.0282452 -1.92973 -5.93486
1 0.0281302 1.98762 -5.93161
1 0.00884228 5.79681 -5.86407
1 -0.0354424 9.79138 -5.91505
1 0.0176078 13.4441 -5.8045
1 -0.0756156 -13.3372 -1.77392
1 -0.0255429 -9.58813 -1.94997
1 -0.0356325 -5.80804 -1.89091
1 -0.0458646 -1.92437 -2.07913
1 0.0829905 2.08842 -2.01835
1 -0.0306275 5.97585 -1.96545
1 0.0555207 9.68083 -1.98544
1 -0.0402227 13.3224 -1.80414
1 -0.101481 -13.2161 1.94228
1 0.0272133 -9.54636 2.03455
1 0.0319347 -5.82326 1.9983
1 -0.00763859 -2.01029 2.032
1 0.0354895 2.00586 2.03259
1 -0.0767571 5.88285 1.97871
1 0.0381258 9.68157 2.0476
1 0.0512426 13.212 1.90811
1 0.0692177 -13.4005 5.78351
1 -0.0287438 -9.72786 5.94023
1 -0.024262 -5.8694 5.90111
1 -0.0752434 -1.90714 5.90019
1 -0.0388772 1.99397 5.97415
1 0.0358277 5.83389 5.79921
1 -0.00294854 9.77807 5.91145
1 -0.0103393 13.3847 5.7893
1 0.0989493 -9.82126 9.95654
1 0.016537 -5.81548 9.77508
1 -0.0423828 -1.99928 9.57455
1 -0.00239955 2.10399 9.59257
1 -0.0464982 5.99584 9.60171
1 0.0419887 9.59245 9.75301
1 0.0231946 -5.56634 13.5288
1 -0.035468 -1.81675 13.3568
1 -0.039983 1.93249 13.3554
1 0.0118807 5.63076 13.4563
1 3.85245 -1.88436 -13.355
1 3.78987 1.94394 -13.3656
1 4.06074 -9.71327 -9.65537
1 3.83543 -5.82961 -9.83624
1 3.97132 -1.89254 -9.5571
1 4.0216 1.93163 -9.6124
1 3.80841 5.96029 -9.73809
1 4.14699 9.9273 -9.65403
1 3.77863 -9.7016 -5.7575
1 4.03013 -5.92205 -5.98191
1 3.97943 -2.00342 -5.80581
1 4.03507 2.04186 -5.90234
1 4.06841 5.93954 -5.94171
1 3.92004 9.75743 -5.93791
1 3.88258 -13.4281 -2.05183
1 3.90751 -9.62442 -1.98674
1 3.94901 -5.89008 -2.11731
1 3.99834 -2.07726 -1.98068
1 3.99901 1.9786 -2.03195
1 3.9142 5.80489 -1.99342
1 3.89354 9.60946 -1.9665
1 3.89434 13.3806 -2.01679
1 3.81894 -13.357 1.94926
1 3.92041 -9.57361 2.051
1 3.92711 -5.8526 1.9456
1 4.04327 -2.01871 2.01545
1 3.99916 1.98858 1.98015
1 3.81416 5.79968 1.98798
1 3.99103 9.61862 1.98118
1 3.90827 13.2499 1.91479
1 3.87612 -9.63598 5.93387
1 4.03521 -5.87339 5.92515
1 3.93002 -1.97032 5.76545
1 3.9439 1.98119 5.88339
1 4.06329 5.93144 5.99508
1 3.91003 9.74157 5.8429
1 4.15095 -9.61059 9.84481
1 3.79712 -5.73392 9.7451
1 3.96575 -1.96581 9.70871
1 3.96173 1.97843 9.61623
1 3.83474 5.89497 9.67234
1 4.28168 9.74413 9.72401
1 3.81083 -2.05453 13.4374
1 3.89449 2.0503 13.4225
1 7.97186 -6.12778 -9.81764
1 8.06567 -2.0261 -9.9424
1 7.96647 1.97674 -9.82822
1 8.0756 6.23066 -9.89149
1 7.9618 -9.81542 -6.18272
1 8.0022 -6.09281 -5.97372
1 7.81067 -1.99197 -5.94402
1 7.89576 2.11981 -5.91048
1 8.01266 6.0658 -5.9964
1 8.15443 9.78855 -6.23249
1 8.06617 -9.94057 -2.01922
1 7.84302 -5.94914 -1.98581
1 7.76142 -2.01473 -2.00187
1 7.76945 1.94898 -2.06379
1 7.76685 5.90937 -2.00998
1 8.01523 9.88537 -2.13774
1 7.763 -9.76285 2.13581
1 7.69394 -5.85179 1.99162
1 7.69916 -1.95594 1.91292
1 7.80575 1.98497 1.90424
1 7.79298 5.88792 1.94354
1 7.98648 9.80813 2.05835
1 7.9784 -9.9252 6.24489
1 8.00445 -6.05401 5.98691
1 7.7336 -1.9454 5.825
1 7.76659 2.09154 5.79668
1 8.09046 5.96906 5.97523
1 8.00295 9.93834 6.15181
1 8.046 -6.13097 9.78731
1 7.95136 -2.00043 9.84334
1 8.11792 1.99964 9.91453
1 8.09025 6.18965 9.69328
1 11.5266 -6.00838 -6.01065
1 11.7615 -1.95289 -6.1032
1 11.8951 2.04563 -6.09071
1 11.6341 5.9107 -6.06948
1 11.6082 -6.07297 -1.94862
1 11.4897 -2.05183 -2.13836
1 11.5352 1.95924 -1.99059
1 11.6421 5.98887 -1.95577
1 11.7407 -6.03463 2.0275
1 11.3494 -2.02414 1.91015
1 11.4762 1.95112 1.9593
1 11.7241 6.125 1.86836
1 11.4481 -6.07924 6.00248
1 11.5751 -2.03723 5.96445
1 11.7631 2.01114 5.99923
1 11.6048 6.03648 5.94527
