LAMMPS DATA FOR MEAM SIMULATION

    965   atoms
      2   atom types

  -25.37   25.37   xlo xhi
  -25.37   25.37   ylo yhi
  -25.37   25.37   zlo zhi

 Atoms

     1   1    -0.00000     0.00000   -15.36770
     2   1    -3.92242    -7.76234   -11.76900
     3   2     0.00000    -7.86176   -11.75380
     4   2     3.92242    -7.76234   -11.76900
     5   1    -7.76234    -3.92242   -11.76900
     6   1    -3.96699    -3.96699   -11.63910
     7   2     0.00000    -3.98115   -11.59440
     8   2     3.96699    -3.96699   -11.63910
     9   2     7.76234    -3.92242   -11.76900
    10   1    -7.86176     0.00000   -11.75380
    11   1    -3.98115     0.00000   -11.59440
    12   1    -0.00000    -0.00000   -11.46060
    13   2     3.98115    -0.00000   -11.59440
    14   2     7.86176    -0.00000   -11.75380
    15   1    -7.76234     3.92242   -11.76900
    16   1    -3.96699     3.96699   -11.63910
    17   1    -0.00000     3.98115   -11.59440
    18   2     3.96699     3.96699   -11.63910
    19   2     7.76234     3.92242   -11.76900
    20   1    -3.92242     7.76234   -11.76900
    21   2     0.00000     7.86176   -11.75380
    22   2     3.92242     7.76234   -11.76900
    23   1    -3.92242   -11.76900    -7.76234
    24   1    -0.00000   -11.75380    -7.86176
    25   2     3.92242   -11.76900    -7.76234
    26   1    -7.92862    -7.92862    -7.92862
    27   1    -3.93922    -7.92589    -7.92589
    28   2     0.00000    -7.92456    -7.92456
    29   2     3.93922    -7.92589    -7.92589
    30   2     7.92862    -7.92862    -7.92862
    31   1   -11.76900    -3.92242    -7.76234
    32   1    -7.92589    -3.93922    -7.92589
    33   1    -4.08272    -4.08272    -7.96421
    34   2     0.00000    -4.01990    -7.73671
    35   2     4.08272    -4.08272    -7.96421
    36   2     7.92589    -3.93922    -7.92589
    37   2    11.76900    -3.92242    -7.76234
    38   1   -11.75380     0.00000    -7.86176
    39   1    -7.92456     0.00000    -7.92456
    40   1    -4.01990    -0.00000    -7.73671
    41   1    -0.00000     0.00000    -7.70215
    42   2     4.01990    -0.00000    -7.73671
    43   2     7.92456    -0.00000    -7.92456
    44   2    11.75380     0.00000    -7.86176
    45   1   -11.76900     3.92242    -7.76234
    46   1    -7.92589     3.93922    -7.92589
    47   1    -4.08272     4.08272    -7.96421
    48   2     0.00000     4.01990    -7.73671
    49   2     4.08272     4.08272    -7.96421
    50   2     7.92589     3.93922    -7.92589
    51   2    11.76900     3.92242    -7.76234
    52   1    -7.92862     7.92862    -7.92862
    53   1    -3.93922     7.92589    -7.92589
    54   2     0.00000     7.92456    -7.92456
    55   2     3.93922     7.92589    -7.92589
    56   2     7.92862     7.92862    -7.92862
    57   1    -3.92242    11.76900    -7.76234
    58   2     0.00000    11.75380    -7.86176
    59   2     3.92242    11.76900    -7.76234
    60   1    -7.76234   -11.76900    -3.92242
    61   1    -3.96699   -11.63910    -3.96699
    62   2     0.00000   -11.59440    -3.98115
    63   2     3.96699   -11.63910    -3.96699
    64   2     7.76234   -11.76900    -3.92242
    65   1   -11.76900    -7.76234    -3.92242
    66   1    -7.92589    -7.92589    -3.93922
    67   1    -4.08272    -7.96421    -4.08272
    68   2     0.00000    -7.73671    -4.01990
    69   2     4.08272    -7.96421    -4.08272
    70   2     7.92589    -7.92589    -3.93922
    71   2    11.76900    -7.76234    -3.92242
    72   1   -11.63910    -3.96699    -3.96699
    73   1    -7.96421    -4.08272    -4.08272
    74   1    -4.01593    -4.01593    -4.01593
    75   2     0.00000    -4.02945    -4.02945
    76   2     4.01593    -4.01593    -4.01593
    77   2     7.96421    -4.08272    -4.08272
    78   2    11.63910    -3.96699    -3.96699
    79   1   -11.59440    -0.00000    -3.98115
    80   1    -7.73671     0.00000    -4.01990
    81   1    -4.02945     0.00000    -4.02945
    82   2     0.00000    -0.00000    -3.86878
    83   2     4.02945    -0.00000    -4.02945
    84   2     7.73671     0.00000    -4.01990
    85   2    11.59440     0.00000    -3.98115
    86   1   -11.63910     3.96699    -3.96699
    87   1    -7.96421     4.08272    -4.08272
    88   1    -4.01593     4.01593    -4.01593
    89   2     0.00000     4.02945    -4.02945
    90   2     4.01593     4.01593    -4.01593
    91   2     7.96421     4.08272    -4.08272
    92   2    11.63910     3.96699    -3.96699
    93   1   -11.76900     7.76234    -3.92242
    94   1    -7.92589     7.92589    -3.93922
    95   1    -4.08272     7.96421    -4.08272
    96   2     0.00000     7.73671    -4.01990
    97   2     4.08272     7.96421    -4.08272
    98   2     7.92589     7.92589    -3.93922
    99   2    11.76900     7.76234    -3.92242
   100   1    -7.76234    11.76900    -3.92242
   101   1    -3.96699    11.63910    -3.96699
   102   1    -0.00000    11.59440    -3.98115
   103   2     3.96699    11.63910    -3.96699
   104   2     7.76234    11.76900    -3.92242
   105   1    -0.00000   -15.36770     0.00000
   106   1    -7.86176   -11.75380    -0.00000
   107   1    -3.98115   -11.59440     0.00000
   108   2     0.00000   -11.46060    -0.00000
   109   2     3.98115   -11.59440    -0.00000
   110   2     7.86176   -11.75380    -0.00000
   111   1   -11.75380    -7.86176    -0.00000
   112   1    -7.92456    -7.92456    -0.00000
   113   1    -4.01990    -7.73671     0.00000
   114   2     0.00000    -7.70215     0.00000
   115   2     4.01990    -7.73671    -0.00000
   116   2     7.92456    -7.92456     0.00000
   117   2    11.75380    -7.86176     0.00000
   118   1   -11.59440    -3.98115    -0.00000
   119   1    -7.73671    -4.01990    -0.00000
   120   1    -4.02945    -4.02945     0.00000
   121   1    -0.00000    -3.86878    -0.00000
   122   2     4.02945    -4.02945     0.00000
   123   2     7.73671    -4.01990    -0.00000
   124   2    11.59440    -3.98115     0.00000
   125   1   -15.36770     0.00000     0.00000
   126   1   -11.46060    -0.00000     0.00000
   127   1    -7.70215     0.00000     0.00000
   128   1    -3.86878     0.00000     0.00000
   129   2     0.00000     0.00000    -0.00000
   130   2     3.86878     0.00000     0.00000
   131   2     7.70215    -0.00000    -0.00000
   132   2    11.46060     0.00000     0.00000
   133   2    15.36770    -0.00000    -0.00000
   134   1   -11.59440     3.98115     0.00000
   135   1    -7.73671     4.01990    -0.00000
   136   1    -4.02945     4.02945     0.00000
   137   2     0.00000     3.86878    -0.00000
   138   2     4.02945     4.02945     0.00000
   139   2     7.73671     4.01990    -0.00000
   140   2    11.59440     3.98115     0.00000
   141   1   -11.75380     7.86176    -0.00000
   142   1    -7.92456     7.92456    -0.00000
   143   1    -4.01990     7.73671    -0.00000
   144   2     0.00000     7.70215    -0.00000
   145   2     4.01990     7.73671     0.00000
   146   2     7.92456     7.92456     0.00000
   147   2    11.75380     7.86176    -0.00000
   148   1    -7.86176    11.75380     0.00000
   149   1    -3.98115    11.59440     0.00000
   150   2     0.00000    11.46060    -0.00000
   151   2     3.98115    11.59440    -0.00000
   152   2     7.86176    11.75380    -0.00000
   153   2     0.00000    15.36770    -0.00000
   154   1    -7.76234   -11.76900     3.92242
   155   1    -3.96699   -11.63910     3.96699
   156   1    -0.00000   -11.59440     3.98115
   157   2     3.96699   -11.63910     3.96699
   158   2     7.76234   -11.76900     3.92242
   159   1   -11.76900    -7.76234     3.92242
   160   1    -7.92589    -7.92589     3.93922
   161   1    -4.08272    -7.96421     4.08272
   162   1    -0.00000    -7.73671     4.01990
   163   2     4.08272    -7.96421     4.08272
   164   2     7.92589    -7.92589     3.93922
   165   2    11.76900    -7.76234     3.92242
   166   1   -11.63910    -3.96699     3.96699
   167   1    -7.96421    -4.08272     4.08272
   168   1    -4.01593    -4.01593     4.01593
   169   1    -0.00000    -4.02945     4.02945
   170   2     4.01593    -4.01593     4.01593
   171   2     7.96421    -4.08272     4.08272
   172   2    11.63910    -3.96699     3.96699
   173   1   -11.59440     0.00000     3.98115
   174   1    -7.73671    -0.00000     4.01990
   175   1    -4.02945     0.00000     4.02945
   176   1    -0.00000    -0.00000     3.86878
   177   2     4.02945    -0.00000     4.02945
   178   2     7.73671    -0.00000     4.01990
   179   2    11.59440     0.00000     3.98115
   180   1   -11.63910     3.96699     3.96699
   181   1    -7.96421     4.08272     4.08272
   182   1    -4.01593     4.01593     4.01593
   183   2     0.00000     4.02945     4.02945
   184   2     4.01593     4.01593     4.01593
   185   2     7.96421     4.08272     4.08272
   186   2    11.63910     3.96699     3.96699
   187   1   -11.76900     7.76234     3.92242
   188   1    -7.92589     7.92589     3.93922
   189   1    -4.08272     7.96421     4.08272
   190   1    -0.00000     7.73671     4.01990
   191   2     4.08272     7.96421     4.08272
   192   2     7.92589     7.92589     3.93922
   193   2    11.76900     7.76234     3.92242
   194   1    -7.76234    11.76900     3.92242
   195   1    -3.96699    11.63910     3.96699
   196   1    -0.00000    11.59440     3.98115
   197   2     3.96699    11.63910     3.96699
   198   2     7.76234    11.76900     3.92242
   199   1    -3.92242   -11.76900     7.76234
   200   2     0.00000   -11.75380     7.86176
   201   2     3.92242   -11.76900     7.76234
   202   1    -7.92862    -7.92862     7.92862
   203   1    -3.93922    -7.92589     7.92589
   204   1    -0.00000    -7.92456     7.92456
   205   2     3.93922    -7.92589     7.92589
   206   2     7.92862    -7.92862     7.92862
   207   1   -11.76900    -3.92242     7.76234
   208   1    -7.92589    -3.93922     7.92589
   209   1    -4.08272    -4.08272     7.96421
   210   2     0.00000    -4.01990     7.73671
   211   2     4.08272    -4.08272     7.96421
   212   2     7.92589    -3.93922     7.92589
   213   2    11.76900    -3.92242     7.76234
   214   1   -11.75380    -0.00000     7.86176
   215   1    -7.92456     0.00000     7.92456
   216   1    -4.01990     0.00000     7.73671
   217   1    -0.00000     0.00000     7.70215
   218   2     4.01990    -0.00000     7.73671
   219   2     7.92456     0.00000     7.92456
   220   2    11.75380    -0.00000     7.86176
   221   1   -11.76900     3.92242     7.76234
   222   1    -7.92589     3.93922     7.92589
   223   1    -4.08272     4.08272     7.96421
   224   1    -0.00000     4.01990     7.73671
   225   2     4.08272     4.08272     7.96421
   226   2     7.92589     3.93922     7.92589
   227   2    11.76900     3.92242     7.76234
   228   1    -7.92862     7.92862     7.92862
   229   1    -3.93922     7.92589     7.92589
   230   2     0.00000     7.92456     7.92456
   231   2     3.93922     7.92589     7.92589
   232   2     7.92862     7.92862     7.92862
   233   1    -3.92242    11.76900     7.76234
   234   1    -0.00000    11.75380     7.86176
   235   2     3.92242    11.76900     7.76234
   236   1    -3.92242    -7.76234    11.76900
   237   2     0.00000    -7.86176    11.75380
   238   2     3.92242    -7.76234    11.76900
   239   1    -7.76234    -3.92242    11.76900
   240   1    -3.96699    -3.96699    11.63910
   241   1    -0.00000    -3.98115    11.59440
   242   2     3.96699    -3.96699    11.63910
   243   2     7.76234    -3.92242    11.76900
   244   1    -7.86176     0.00000    11.75380
   245   1    -3.98115    -0.00000    11.59440
   246   1    -0.00000     0.00000    11.46060
   247   2     3.98115     0.00000    11.59440
   248   2     7.86176    -0.00000    11.75380
   249   1    -7.76234     3.92242    11.76900
   250   1    -3.96699     3.96699    11.63910
   251   2     0.00000     3.98115    11.59440
   252   2     3.96699     3.96699    11.63910
   253   2     7.76234     3.92242    11.76900
   254   1    -3.92242     7.76234    11.76900
   255   1    -0.00000     7.86176    11.75380
   256   2     3.92242     7.76234    11.76900
   257   2     0.00000    -0.00000    15.36770
   258   1    -5.83203    -5.83203   -11.75240
   259   1    -1.95797    -5.84612   -11.66260
   260   2     1.95797    -5.84612   -11.66260
   261   2     5.83203    -5.83203   -11.75240
   262   1    -5.84612    -1.95797   -11.66260
   263   1    -2.03518    -2.03518   -11.57490
   264   2     2.03518    -2.03518   -11.57490
   265   2     5.84612    -1.95797   -11.66260
   266   1    -5.84612     1.95797   -11.66260
   267   1    -2.03518     2.03518   -11.57490
   268   2     2.03518     2.03518   -11.57490
   269   2     5.84612     1.95797   -11.66260
   270   1    -5.83203     5.83203   -11.75240
   271   1    -1.95797     5.84612   -11.66260
   272   2     1.95797     5.84612   -11.66260
   273   2     5.83203     5.83203   -11.75240
   274   1    -5.94102    -9.96343    -7.90815
   275   1    -1.99125    -9.87057    -7.88878
   276   2     1.99125    -9.87057    -7.88878
   277   2     5.94102    -9.96343    -7.90815
   278   1    -9.96343    -5.94102    -7.90815
   279   1    -6.02651    -6.02651    -7.89042
   280   1    -1.96023    -5.97872    -7.88739
   281   2     1.96023    -5.97872    -7.88739
   282   2     6.02651    -6.02651    -7.89042
   283   2     9.96343    -5.94102    -7.90815
   284   1    -9.87057    -1.99125    -7.88878
   285   1    -5.97872    -1.96023    -7.88739
   286   1    -1.95135    -1.95135    -7.69468
   287   2     1.95135    -1.95135    -7.69468
   288   2     5.97872    -1.96023    -7.88739
   289   2     9.87057    -1.99125    -7.88878
   290   1    -9.87057     1.99125    -7.88878
   291   1    -5.97872     1.96023    -7.88739
   292   1    -1.95135     1.95135    -7.69468
   293   2     1.95135     1.95135    -7.69468
   294   2     5.97872     1.96023    -7.88739
   295   2     9.87057     1.99125    -7.88878
   296   1    -9.96343     5.94102    -7.90815
   297   1    -6.02651     6.02651    -7.89042
   298   1    -1.96023     5.97872    -7.88739
   299   2     1.96023     5.97872    -7.88739
   300   2     6.02651     6.02651    -7.89042
   301   2     9.96343     5.94102    -7.90815
   302   1    -5.94102     9.96343    -7.90815
   303   1    -1.99125     9.87057    -7.88878
   304   2     1.99125     9.87057    -7.88878
   305   2     5.94102     9.96343    -7.90815
   306   1    -1.96661   -13.62830    -3.91587
   307   2     1.96661   -13.62830    -3.91587
   308   1    -9.83902    -9.83902    -3.96386
   309   1    -5.91216    -9.84049    -4.01739
   310   1    -2.07759    -9.62177    -3.92749
   311   2     2.07759    -9.62177    -3.92749
   312   2     5.91216    -9.84049    -4.01739
   313   2     9.83902    -9.83902    -3.96386
   314   1    -9.84049    -5.91216    -4.01739
   315   1    -6.08682    -6.08682    -4.14096
   316   1    -2.02348    -5.91060    -3.98937
   317   2     2.02348    -5.91060    -3.98937
   318   2     6.08682    -6.08682    -4.14096
   319   2     9.84049    -5.91216    -4.01739
   320   1   -13.62830    -1.96661    -3.91587
   321   1    -9.62177    -2.07759    -3.92749
   322   1    -5.91060    -2.02348    -3.98937
   323   1    -1.96145    -1.96145    -3.90432
   324   2     1.96145    -1.96145    -3.90432
   325   2     5.91060    -2.02348    -3.98937
   326   2     9.62177    -2.07759    -3.92749
   327   2    13.62830    -1.96661    -3.91587
   328   1   -13.62830     1.96661    -3.91587
   329   1    -9.62177     2.07759    -3.92749
   330   1    -5.91060     2.02348    -3.98937
   331   1    -1.96145     1.96145    -3.90432
   332   2     1.96145     1.96145    -3.90432
   333   2     5.91060     2.02348    -3.98937
   334   2     9.62177     2.07759    -3.92749
   335   2    13.62830     1.96661    -3.91587
   336   1    -9.84049     5.91216    -4.01739
   337   1    -6.08682     6.08682    -4.14096
   338   1    -2.02348     5.91060    -3.98937
   339   2     2.02348     5.91060    -3.98937
   340   2     6.08682     6.08682    -4.14096
   341   2     9.84049     5.91216    -4.01739
   342   1    -9.83902     9.83902    -3.96386
   343   1    -5.91216     9.84049    -4.01739
   344   1    -2.07759     9.62177    -3.92749
   345   2     2.07759     9.62177    -3.92749
   346   2     5.91216     9.84049    -4.01739
   347   2     9.83902     9.83902    -3.96386
   348   1    -1.96661    13.62830    -3.91587
   349   2     1.96661    13.62830    -3.91587
   350   1    -5.84152   -13.60250     0.00000
   351   1    -1.92202   -13.41690    -0.00000
   352   2     1.92202   -13.41690     0.00000
   353   2     5.84152   -13.60250    -0.00000
   354   1    -9.84396    -9.84396     0.00000
   355   1    -5.83235    -9.83866    -0.00000
   356   1    -1.91931    -9.73151     0.00000
   357   2     1.91931    -9.73151     0.00000
   358   2     5.83235    -9.83866     0.00000
   359   2     9.84396    -9.84396    -0.00000
   360   1   -13.60250    -5.84152    -0.00000
   361   1    -9.83866    -5.83235    -0.00000
   362   1    -5.94778    -5.94778    -0.00000
   363   1    -2.04853    -5.82154    -0.00000
   364   2     2.04853    -5.82154     0.00000
   365   2     5.94778    -5.94778    -0.00000
   366   2     9.83866    -5.83235    -0.00000
   367   2    13.60250    -5.84152    -0.00000
   368   1   -13.41690    -1.92202     0.00000
   369   1    -9.73151    -1.91931    -0.00000
   370   1    -5.82154    -2.04853    -0.00000
   371   1    -2.00857    -2.00857    -0.00000
   372   2     2.00857    -2.00857    -0.00000
   373   2     5.82154    -2.04853     0.00000
   374   2     9.73151    -1.91931    -0.00000
   375   2    13.41690    -1.92202     0.00000
   376   1   -13.41690     1.92202    -0.00000
   377   1    -9.73151     1.91931    -0.00000
   378   1    -5.82154     2.04853     0.00000
   379   1    -2.00857     2.00857    -0.00000
   380   2     2.00857     2.00857    -0.00000
   381   2     5.82154     2.04853     0.00000
   382   2     9.73151     1.91931     0.00000
   383   2    13.41690     1.92202     0.00000
   384   1   -13.60250     5.84152     0.00000
   385   1    -9.83866     5.83235    -0.00000
   386   1    -5.94778     5.94778    -0.00000
   387   1    -2.04853     5.82154    -0.00000
   388   2     2.04853     5.82154     0.00000
   389   2     5.94778     5.94778    -0.00000
   390   2     9.83866     5.83235    -0.00000
   391   2    13.60250     5.84152     0.00000
   392   1    -9.84396     9.84396    -0.00000
   393   1    -5.83235     9.83866    -0.00000
   394   1    -1.91931     9.73151    -0.00000
   395   2     1.91931     9.73151    -0.00000
   396   2     5.83235     9.83866    -0.00000
   397   2     9.84396     9.84396    -0.00000
   398   1    -5.84152    13.60250     0.00000
   399   1    -1.92202    13.41690    -0.00000
   400   2     1.92202    13.41690     0.00000
   401   2     5.84152    13.60250    -0.00000
   402   1    -1.96661   -13.62830     3.91587
   403   2     1.96661   -13.62830     3.91587
   404   1    -9.83902    -9.83902     3.96386
   405   1    -5.91216    -9.84049     4.01739
   406   1    -2.07759    -9.62177     3.92749
   407   2     2.07759    -9.62177     3.92749
   408   2     5.91216    -9.84049     4.01739
   409   2     9.83902    -9.83902     3.96386
   410   1    -9.84049    -5.91216     4.01739
   411   1    -6.08682    -6.08682     4.14096
   412   1    -2.02348    -5.91060     3.98937
   413   2     2.02348    -5.91060     3.98937
   414   2     6.08682    -6.08682     4.14096
   415   2     9.84049    -5.91216     4.01739
   416   1   -13.62830    -1.96661     3.91587
   417   1    -9.62177    -2.07759     3.92749
   418   1    -5.91060    -2.02348     3.98937
   419   1    -1.96145    -1.96145     3.90432
   420   2     1.96145    -1.96145     3.90432
   421   2     5.91060    -2.02348     3.98937
   422   2     9.62177    -2.07759     3.92749
   423   2    13.62830    -1.96661     3.91587
   424   1   -13.62830     1.96661     3.91587
   425   1    -9.62177     2.07759     3.92749
   426   1    -5.91060     2.02348     3.98937
   427   1    -1.96145     1.96145     3.90432
   428   2     1.96145     1.96145     3.90432
   429   2     5.91060     2.02348     3.98937
   430   2     9.62177     2.07759     3.92749
   431   2    13.62830     1.96661     3.91587
   432   1    -9.84049     5.91216     4.01739
   433   1    -6.08682     6.08682     4.14096
   434   1    -2.02348     5.91060     3.98937
   435   2     2.02348     5.91060     3.98937
   436   2     6.08682     6.08682     4.14096
   437   2     9.84049     5.91216     4.01739
   438   1    -9.83902     9.83902     3.96386
   439   1    -5.91216     9.84049     4.01739
   440   1    -2.07759     9.62177     3.92749
   441   2     2.07759     9.62177     3.92749
   442   2     5.91216     9.84049     4.01739
   443   2     9.83902     9.83902     3.96386
   444   1    -1.96661    13.62830     3.91587
   445   2     1.96661    13.62830     3.91587
   446   1    -5.94102    -9.96343     7.90815
   447   1    -1.99125    -9.87057     7.88878
   448   2     1.99125    -9.87057     7.88878
   449   2     5.94102    -9.96343     7.90815
   450   1    -9.96343    -5.94102     7.90815
   451   1    -6.02651    -6.02651     7.89042
   452   1    -1.96023    -5.97872     7.88739
   453   2     1.96023    -5.97872     7.88739
   454   2     6.02651    -6.02651     7.89042
   455   2     9.96343    -5.94102     7.90815
   456   1    -9.87057    -1.99125     7.88878
   457   1    -5.97872    -1.96023     7.88739
   458   1    -1.95135    -1.95135     7.69468
   459   2     1.95135    -1.95135     7.69468
   460   2     5.97872    -1.96023     7.88739
   461   2     9.87057    -1.99125     7.88878
   462   1    -9.87057     1.99125     7.88878
   463   1    -5.97872     1.96023     7.88739
   464   1    -1.95135     1.95135     7.69468
   465   2     1.95135     1.95135     7.69468
   466   2     5.97872     1.96023     7.88739
   467   2     9.87057     1.99125     7.88878
   468   1    -9.96343     5.94102     7.90815
   469   1    -6.02651     6.02651     7.89042
   470   1    -1.96023     5.97872     7.88739
   471   2     1.96023     5.97872     7.88739
   472   2     6.02651     6.02651     7.89042
   473   2     9.96343     5.94102     7.90815
   474   1    -5.94102     9.96343     7.90815
   475   1    -1.99125     9.87057     7.88878
   476   2     1.99125     9.87057     7.88878
   477   2     5.94102     9.96343     7.90815
   478   1    -5.83203    -5.83203    11.75240
   479   1    -1.95797    -5.84612    11.66260
   480   2     1.95797    -5.84612    11.66260
   481   2     5.83203    -5.83203    11.75240
   482   1    -5.84612    -1.95797    11.66260
   483   1    -2.03518    -2.03518    11.57490
   484   2     2.03518    -2.03518    11.57490
   485   2     5.84612    -1.95797    11.66260
   486   1    -5.84612     1.95797    11.66260
   487   1    -2.03518     2.03518    11.57490
   488   2     2.03518     2.03518    11.57490
   489   2     5.84612     1.95797    11.66260
   490   1    -5.83203     5.83203    11.75240
   491   1    -1.95797     5.84612    11.66260
   492   2     1.95797     5.84612    11.66260
   493   2     5.83203     5.83203    11.75240
   494   1    -5.83203   -11.75240    -5.83203
   495   1    -1.95797   -11.66260    -5.84612
   496   2     1.95797   -11.66260    -5.84612
   497   2     5.83203   -11.75240    -5.83203
   498   1    -5.84612   -11.66260    -1.95797
   499   1    -2.03518   -11.57490    -2.03518
   500   2     2.03518   -11.57490    -2.03518
   501   2     5.84612   -11.66260    -1.95797
   502   1    -5.84612   -11.66260     1.95797
   503   1    -2.03518   -11.57490     2.03518
   504   2     2.03518   -11.57490     2.03518
   505   2     5.84612   -11.66260     1.95797
   506   1    -5.83203   -11.75240     5.83203
   507   1    -1.95797   -11.66260     5.84612
   508   2     1.95797   -11.66260     5.84612
   509   2     5.83203   -11.75240     5.83203
   510   1    -5.94102    -7.90815    -9.96343
   511   1    -1.99125    -7.88878    -9.87057
   512   2     1.99125    -7.88878    -9.87057
   513   2     5.94102    -7.90815    -9.96343
   514   1    -9.96343    -7.90815    -5.94102
   515   1    -6.02651    -7.89042    -6.02651
   516   1    -1.96023    -7.88739    -5.97872
   517   2     1.96023    -7.88739    -5.97872
   518   2     6.02651    -7.89042    -6.02651
   519   2     9.96343    -7.90815    -5.94102
   520   1    -9.87057    -7.88878    -1.99125
   521   1    -5.97872    -7.88739    -1.96023
   522   1    -1.95135    -7.69468    -1.95135
   523   2     1.95135    -7.69468    -1.95135
   524   2     5.97872    -7.88739    -1.96023
   525   2     9.87057    -7.88878    -1.99125
   526   1    -9.87057    -7.88878     1.99125
   527   1    -5.97872    -7.88739     1.96023
   528   1    -1.95135    -7.69468     1.95135
   529   2     1.95135    -7.69468     1.95135
   530   2     5.97872    -7.88739     1.96023
   531   2     9.87057    -7.88878     1.99125
   532   1    -9.96343    -7.90815     5.94102
   533   1    -6.02651    -7.89042     6.02651
   534   1    -1.96023    -7.88739     5.97872
   535   2     1.96023    -7.88739     5.97872
   536   2     6.02651    -7.89042     6.02651
   537   2     9.96343    -7.90815     5.94102
   538   1    -5.94102    -7.90815     9.96343
   539   1    -1.99125    -7.88878     9.87057
   540   2     1.99125    -7.88878     9.87057
   541   2     5.94102    -7.90815     9.96343
   542   1    -1.96661    -3.91587   -13.62830
   543   2     1.96661    -3.91587   -13.62830
   544   1    -9.83902    -3.96386    -9.83902
   545   1    -5.91216    -4.01739    -9.84049
   546   1    -2.07759    -3.92749    -9.62177
   547   2     2.07759    -3.92749    -9.62177
   548   2     5.91216    -4.01739    -9.84049
   549   2     9.83902    -3.96386    -9.83902
   550   1    -9.84049    -4.01739    -5.91216
   551   1    -6.08682    -4.14096    -6.08682
   552   1    -2.02348    -3.98937    -5.91060
   553   2     2.02348    -3.98937    -5.91060
   554   2     6.08682    -4.14096    -6.08682
   555   2     9.84049    -4.01739    -5.91216
   556   1   -13.62830    -3.91587    -1.96661
   557   1    -9.62177    -3.92749    -2.07759
   558   1    -5.91060    -3.98937    -2.02348
   559   1    -1.96145    -3.90432    -1.96145
   560   2     1.96145    -3.90432    -1.96145
   561   2     5.91060    -3.98937    -2.02348
   562   2     9.62177    -3.92749    -2.07759
   563   2    13.62830    -3.91587    -1.96661
   564   1   -13.62830    -3.91587     1.96661
   565   1    -9.62177    -3.92749     2.07759
   566   1    -5.91060    -3.98937     2.02348
   567   1    -1.96145    -3.90432     1.96145
   568   2     1.96145    -3.90432     1.96145
   569   2     5.91060    -3.98937     2.02348
   570   2     9.62177    -3.92749     2.07759
   571   2    13.62830    -3.91587     1.96661
   572   1    -9.84049    -4.01739     5.91216
   573   1    -6.08682    -4.14096     6.08682
   574   1    -2.02348    -3.98937     5.91060
   575   2     2.02348    -3.98937     5.91060
   576   2     6.08682    -4.14096     6.08682
   577   2     9.84049    -4.01739     5.91216
   578   1    -9.83902    -3.96386     9.83902
   579   1    -5.91216    -4.01739     9.84049
   580   1    -2.07759    -3.92749     9.62177
   581   2     2.07759    -3.92749     9.62177
   582   2     5.91216    -4.01739     9.84049
   583   2     9.83902    -3.96386     9.83902
   584   1    -1.96661    -3.91587    13.62830
   585   2     1.96661    -3.91587    13.62830
   586   1    -5.84152    -0.00000   -13.60250
   587   1    -1.92202    -0.00000   -13.41690
   588   2     1.92202     0.00000   -13.41690
   589   2     5.84152     0.00000   -13.60250
   590   1    -9.84396     0.00000    -9.84396
   591   1    -5.83235     0.00000    -9.83866
   592   1    -1.91931    -0.00000    -9.73151
   593   2     1.91931    -0.00000    -9.73151
   594   2     5.83235     0.00000    -9.83866
   595   2     9.84396     0.00000    -9.84396
   596   1   -13.60250    -0.00000    -5.84152
   597   1    -9.83866     0.00000    -5.83235
   598   1    -5.94778    -0.00000    -5.94778
   599   1    -2.04853    -0.00000    -5.82154
   600   2     2.04853    -0.00000    -5.82154
   601   2     5.94778    -0.00000    -5.94778
   602   2     9.83866    -0.00000    -5.83235
   603   2    13.60250    -0.00000    -5.84152
   604   1   -13.41690    -0.00000    -1.92202
   605   1    -9.73151    -0.00000    -1.91931
   606   1    -5.82154     0.00000    -2.04853
   607   1    -2.00857     0.00000    -2.00857
   608   2     2.00857     0.00000    -2.00857
   609   2     5.82154    -0.00000    -2.04853
   610   2     9.73151     0.00000    -1.91931
   611   2    13.41690     0.00000    -1.92202
   612   1   -13.41690    -0.00000     1.92202
   613   1    -9.73151     0.00000     1.91931
   614   1    -5.82154    -0.00000     2.04853
   615   1    -2.00857     0.00000     2.00857
   616   2     2.00857    -0.00000     2.00857
   617   2     5.82154    -0.00000     2.04853
   618   2     9.73151    -0.00000     1.91931
   619   2    13.41690     0.00000     1.92202
   620   1   -13.60250     0.00000     5.84152
   621   1    -9.83866    -0.00000     5.83235
   622   1    -5.94778     0.00000     5.94778
   623   1    -2.04853     0.00000     5.82154
   624   2     2.04853    -0.00000     5.82154
   625   2     5.94778     0.00000     5.94778
   626   2     9.83866     0.00000     5.83235
   627   2    13.60250     0.00000     5.84152
   628   1    -9.84396    -0.00000     9.84396
   629   1    -5.83235     0.00000     9.83866
   630   1    -1.91931    -0.00000     9.73151
   631   2     1.91931    -0.00000     9.73151
   632   2     5.83235    -0.00000     9.83866
   633   2     9.84396     0.00000     9.84396
   634   1    -5.84152     0.00000    13.60250