4321
 Atoms. Timestep: 4193
2 0.296582 -7.72399 -22.8415
2 -3.63948 -3.96272 -22.8863
2 0.210453 -3.84245 -22.8636
2 3.99425 -3.8621 -22.688
3 -7.42313 -0.0669905 -22.4975
2 -3.7624 -0.0046434 -22.6342
3 0.103832 0.149341 -22.7234
1 3.97606 0.0180546 -22.7133
3 7.67609 -0.0263593 -22.4238
3 -3.83878 3.736 -22.7071
2 0.0904953 3.77973 -22.6139
1 4.01285 3.57843 -22.7824
3 0.122741 7.56672 -22.5061
2 -7.76319 -11.6069 -19.143
2 -4.07728 -11.9472 -19.7231
3 0.0133409 -11.3948 -19.065
2 4.31195 -12.4021 -20.5051
2 7.66326 -11.2538 -18.7211
2 -11.4963 -7.96808 -19.3339
2 -7.59175 -7.94395 -19.2557
2 -3.87578 -7.88978 -19.1588
2 0.00205612 -7.76652 -18.9155
1 3.89124 -7.85824 -19.0844
3 7.69381 -7.63223 -18.8916
1 11.5674 -7.81246 -18.7367
1 -11.5905 -4.45909 -19.3535
3 -7.53948 -4.00888 -19.1115
1 -3.75431 -3.98084 -19.2468
2 0.055614 -3.74962 -19.1692
1 3.93363 -3.78952 -19.1561
3 7.77308 -3.72631 -18.8625
3 11.6448 -3.78122 -18.9946
2 -11.4066 -0.103587 -19.3141
2 -7.66075 -0.0645215 -19.0723
3 -3.78411 -0.136487 -19.0161
2 -0.0173936 0.0364512 -18.9005
2 3.89295 0.0932817 -18.9355
1 7.59417 0.0594309 -18.9118
3 11.7008 0.0931651 -18.8854
3 -11.4189 3.80314 -19.0734
2 -7.64196 3.75344 -18.9386
2 -3.81212 3.70109 -18.8883
1 0.0528959 3.69039 -18.9316
3 3.8499 3.85218 -18.9548
3 7.5522 3.7667 -18.916
3 11.4178 3.88671 -18.7261
2 -11.3544 7.76223 -18.9724
2 -7.55398 7.52341 -18.9508
1 -3.88123 7.60217 -19.0285
1 -0.0519477 7.69325 -18.8475
2 3.7271 7.66234 -18.7986
1 7.49916 7.58672 -18.9631
1 11.3334 7.84537 -18.8992
2 -7.73114 11.4739 -18.8666
3 -3.93951 11.5071 -18.8546
2 -0.121654 11.4694 -18.7211
1 4.04495 11.6644 -19.1844
3 7.72892 11.5387 -18.5757
1 -7.91015 -15.2831 -15.5129
2 -3.8647 -15.7443 -15.9099
2 0.0861013 -15.2676 -15.3003
2 3.89118 -15.5513 -15.2346
1 7.87714 -15.5331 -15.1496
2 -11.5205 -11.2957 -15.4153
2 -7.62524 -11.5984 -15.2032
2 -3.80717 -11.6988 -15.2434
3 0.0194351 -11.317 -15.227
2 3.94728 -11.5351 -15.1437
2 7.82269 -11.6513 -15.0973
1 11.7283 -11.8555 -15.2838
2 -15.3497 -8.03059 -15.5092
2 -11.3368 -7.80917 -15.1994
3 -7.62646 -7.67305 -15.3696
1 -3.82863 -7.79539 -15.3364
1 -0.0478654 -7.77138 -15.3682
2 3.85136 -7.57565 -15.1777
2 7.60476 -7.55075 -15.0645
2 11.4048 -7.6281 -15.1002
3 15.2267 -7.76264 -15.1221
1 -15.336 -4.10376 -15.4304
2 -11.4427 -4.13814 -15.4072
2 -7.70825 -3.88493 -15.3174
3 -3.77107 -3.96996 -15.4003
1 -0.0616609 -3.8666 -15.3045
2 3.80577 -3.7671 -15.1864
1 7.64442 -3.82475 -15.1693
2 11.3788 -3.7051 -14.9941
1 15.3657 -3.68207 -15.2009
2 -15.2174 -0.00686529 -15.3166
3 -11.5607 -0.0410256 -15.3751
3 -7.56933 0.0483767 -15.2657
2 -3.84516 -0.0507048 -15.2009
3 -0.132822 -0.0822437 -15.1117
2 3.76903 -0.0746742 -15.3212
1 7.64131 0.0412178 -15.035
2 11.4431 -0.0136518 -15.1444
3 15.1229 0.0716395 -15.1556
2 -15.5889 3.88203 -15.6978
3 -11.4629 3.81423 -15.1637
2 -7.69114 3.72221 -15.2183
1 -3.85633 3.74567 -15.0992
3 -0.0351436 3.67971 -15.0756
2 3.80769 3.78804 -15.0954
1 7.66008 3.94193 -15.0999
2 11.3898 3.88669 -15.1573
2 15.3336 3.92013 -15.2589
1 -15.1983 8.00334 -15.4269
3 -11.5783 7.77857 -15.3488
2 -7.57954 7.58954 -15.1806
2 -3.81457 7.58577 -15.1313
1 -0.0371287 7.63607 -15.1033
1 3.69958 7.62117 -15.0844
3 7.64822 7.64747 -15.1996
3 11.3367 7.73876 -15.1538
2 15.3599 8.29451 -15.7154
1 -11.4763 11.5023 -15.3494
2 -7.57701 11.3794 -15.1018
2 -3.99806 11.4621 -15.1476
2 -0.058845 11.3699 -14.9411
1 3.68439 11.4742 -15.0177
1 7.61849 11.503 -14.96
2 11.353 11.6042 -15.1763
1 -7.77913 15.1746 -15.2232
1 -4.04905 15.5469 -15.6094
2 -0.208515 15.1787 -15.1239
2 3.88683 15.2215 -14.8785
2 7.69628 15.0414 -14.9345
2 -7.85142 -19.2267 -11.6303
3 -3.84267 -18.8922 -11.5347
2 -0.0813412 -19.1896 -11.4672
3 3.85631 -18.9639 -11.3919
1 7.6468 -19.0109 -11.2683
1 -11.6441 -15.6027 -11.6623
3 -7.79111 -15.3451 -11.4657
1 -3.92928 -15.3366 -11.4177
2 0.000818347 -15.3899 -11.3812
3 3.73824 -15.2838 -11.2394
2 7.46016 -15.3953 -11.4035
2 11.4186 -15.3772 -11.3727
2 -15.1523 -11.4127 -11.3756
2 -11.4629 -11.5899 -11.4992
3 -7.74386 -11.4416 -11.3811
3 -3.95676 -11.4753 -11.4076
2 -0.0689235 -11.6113 -11.3848
1 3.79495 -11.5346 -11.489
3 7.64066 -11.602 -11.2801
1 11.4887 -11.6001 -11.2507
2 15.1857 -11.7342 -11.3565
2 -18.9361 -7.89993 -11.4934
1 -15.1927 -7.749 -11.4459
2 -11.3544 -7.74068 -11.5963
2 -7.69004 -7.68288 -11.4651
3 -3.79326 -7.59369 -11.4615
3 0.0515685 -7.66564 -11.4126
1 3.73416 -7.63636 -11.3377
1 7.57373 -7.67636 -11.3083
1 11.3907 -7.63116 -11.2984
2 15.2059 -7.56293 -11.5463
3 18.892 -7.79572 -11.5049
1 -19.0429 -3.88795 -11.593
2 -15.1676 -3.90338 -11.4912
2 -11.4349 -3.90027 -11.6343
2 -7.76486 -3.79667 -11.5135
2 -3.76039 -4.01311 -11.3501
1 -0.0814983 -3.83526 -11.4163
2 3.71205 -3.89553 -11.3358
2 7.56754 -3.86628 -11.2435
2 11.4784 -3.92347 -11.4201
2 15.2478 -3.98477 -11.4614
2 19.2271 -3.87049 -11.8184
2 -18.8705 -0.0995829 -11.4917
3 -15.2171 -0.111627 -11.6343
2 -11.5105 -0.128068 -11.5699
1 -7.67816 -0.167658 -11.469
3 -3.87343 -0.138871 -11.4114
2 -0.0121054 -0.0377305 -11.2935
2 3.64728 0.0194476 -11.2563
3 7.58131 -0.0593455 -11.4312
1 11.4744 -0.0952977 -11.3053
2 15.2467 0.0282876 -11.4558
2 19.1142 0.038508 -11.6015
3 -18.727 3.73583 -11.6622
3 -15.1355 3.66513 -11.3252
3 -11.4477 3.70351 -11.4727
1 -7.72555 3.64839 -11.4205
1 -3.82199 3.6782 -11.4651
3 -0.0674723 3.79249 -11.3646
3 3.64141 3.75899 -11.3183
3 7.6023 3.82582 -11.2597
2 11.4246 3.75293 -11.4371
1 15.1686 3.80916 -11.3191
1 19.4227 4.28043 -11.5809
1 -18.8518 8.13123 -11.5777
1 -15.3815 7.36036 -11.6053
3 -11.6172 7.54206 -11.4964
2 -7.65352 7.40573 -11.4538
2 -3.83706 7.6961 -11.38
1 -0.110392 7.59269 -11.2572
1 3.79184 7.58343 -11.3477
1 7.53808 7.5905 -11.2412
3 11.344 7.64371 -11.2615
3 15.262 7.6403 -11.3585
1 18.5598 8.10521 -11.4727
1 -15.4408 12.0109 -12.0272
2 -11.5599 11.3064 -11.4509
2 -7.583 11.3126 -11.3939
3 -3.93527 11.2695 -11.305
3 0.0496587 11.4168 -11.3405
3 3.7567 11.4375 -11.3542
2 7.51398 11.4032 -11.2628
3 11.3248 11.3936 -11.2278
3 14.9488 11.6589 -11.3061
1 -11.8972 15.6555 -11.8483
1 -7.61958 15.0779 -11.3652
2 -3.92691 15.0561 -11.2561
3 -0.0859494 15.2841 -11.3295
1 3.55591 15.1279 -11.2843
1 7.5999 15.1583 -11.1701
1 11.3654 15.1971 -11.2399
3 -7.7007 18.9285 -11.4207
2 -4.03069 19.0379 -11.3379
2 -0.174391 19.1605 -11.4482
2 3.99796 18.8519 -11.4853
2 8.26114 19.4001 -11.6314
2 -0.00347711 -22.7777 -7.51626
2 -11.3035 -19.028 -7.58545
2 -7.73989 -19.2075 -7.59931
1 -3.86459 -19.0359 -7.67892
2 -0.0639242 -19.1694 -7.62171
3 3.82403 -19.1116 -7.51193
2 7.60726 -19.034 -7.46975
1 11.5115 -18.8771 -7.62454
1 -15.3473 -15.4643 -8.08846
2 -11.4088 -15.3657 -7.6015
3 -7.69471 -15.4041 -7.58778
2 -3.87512 -15.2966 -7.60799
1 -0.0170017 -15.3344 -7.63554
1 3.83392 -15.1849 -7.51861
2 7.55985 -15.2929 -7.4291
2 11.3674 -15.188 -7.40875
3 15.0432 -15.35 -7.6463
3 -18.6424 -11.5502 -7.94973
2 -15.2457 -11.3392 -7.7273
2 -11.3943 -11.4954 -7.60126
3 -7.59582 -11.4533 -7.63785
3 -3.79284 -11.6181 -7.69378
2 -0.0815631 -11.5647 -7.68761
3 3.66667 -11.4059 -7.57064
2 7.60255 -11.4962 -7.45924
3 11.4181 -11.5646 -7.4135
3 15.3271 -11.519 -7.56413
2 19.0899 -11.619 -7.72056
2 -18.9422 -7.70756 -7.47498
2 -15.2678 -7.64712 -7.67559
1 -11.4472 -7.59873 -7.63343
2 -7.54113 -7.60855 -7.71487
3 -3.85949 -7.72891 -7.61199
2 -0.0274162 -7.57309 -7.64173
3 3.63821 -7.54862 -7.51851
2 7.78996 -7.6023 -7.47757
2 11.4476 -7.73555 -7.46167
1 15.4731 -7.73523 -7.36855
1 19.4192 -7.42262 -7.23284
2 -19.0746 -3.81892 -7.65448
3 -15.3184 -3.99598 -7.54598
2 -11.4899 -3.94465 -7.72153
2 -7.62823 -3.82633 -7.51749
3 -3.82911 -3.78602 -7.52065
3 -0.0972018 -3.73396 -7.53481
2 3.6515 -3.73734 -7.40279
3 7.572 -3.76663 -7.46682
2 11.2225 -3.92612 -7.57115
1 15.2237 -3.88133 -7.51339
2 19.225 -3.94224 -7.61713
2 -22.5915 -0.0721349 -7.616
2 -19.1004 -0.0677789 -7.69849
3 -15.1885 -0.136461 -7.75001
2 -11.5621 -0.079396 -7.54886
3 -7.59006 -0.0892149 -7.59859
2 -3.77569 -0.034788 -7.55486
3 -0.0550787 -0.0393079 -7.55567
3 3.79601 -0.0251723 -7.55257
3 7.48416 -0.129468 -7.63013
1 11.3547 -0.0922833 -7.68864
3 15.1933 -0.152975 -7.67963
1 18.9786 0.0860857 -7.54926
2 22.8132 0.0680248 -7.57293
3 -19.05 3.65366 -7.72238
3 -15.2179 3.71289 -7.6097
1 -11.4241 3.70567 -7.7703
1 -7.64628 3.62421 -7.57326
3 -3.86084 3.76522 -7.57581
3 -0.0644788 3.72748 -7.50764
2 3.69124 3.86339 -7.38126
3 7.56271 3.81372 -7.51687
2 11.3112 3.66065 -7.59295
2 15.1228 3.86864 -7.58628
2 18.9665 3.81384 -7.63182
2 -19.3477 7.78428 -7.75012
2 -15.3583 7.48314 -7.76845
3 -11.4976 7.59297 -7.65804
1 -7.60191 7.54063 -7.65606
3 -3.9115 7.5224 -7.57886
3 -0.137343 7.51672 -7.58213
2 3.69412 7.42353 -7.46336
1 7.50153 7.45035 -7.41333
3 11.3808 7.51194 -7.41227
3 15.2051 7.57723 -7.48017
1 18.9842 7.59091 -7.70755
1 -19.0068 12.0323 -8.30046
1 -15.3856 11.5238 -7.76791
2 -11.4061 11.3946 -7.55125
2 -7.61154 11.4114 -7.49159
3 -3.87045 11.486 -7.62642
3 -0.0527868 11.3087 -7.56044
2 3.65225 11.407 -7.55073
3 7.56998 11.4152 -7.45596
1 11.3649 11.3639 -7.49572
2 14.9511 11.378 -7.46942
3 18.7718 11.2686 -7.62262
2 -15.1586 15.2465 -7.86185
1 -11.465 15.2388 -7.65835
1 -7.66225 15.1673 -7.53154
2 -3.81086 15.1725 -7.47363
3 -0.113594 15.2166 -7.49207
3 3.65113 15.2059 -7.43514
3 7.48975 15.2877 -7.41351
3 11.3791 15.1796 -7.53827
2 14.997 15.3373 -7.58612
1 -11.5615 19.0229 -7.96407
2 -7.46818 18.7578 -7.57917
1 -3.97335 19.0316 -7.56333
1 -0.033272 19.1622 -7.32065
3 3.64528 19.0784 -7.39704
2 7.48877 18.9382 -7.48289
2 11.3275 18.9104 -7.63645
2 -0.186823 22.6487 -7.10884
3 -3.9218 -22.7762 -3.75789
1 -0.020646 -23.027 -3.62572
1 3.66493 -23.0823 -3.84776
1 -11.5941 -19.3472 -3.79535
2 -7.65038 -19.0918 -3.79773
2 -3.89898 -18.9928 -3.85872
3 -0.0739021 -19.1619 -3.92688
1 3.87669 -19.1099 -3.82668
2 7.48994 -18.9814 -3.82356
2 11.7053 -19.3324 -3.93982
2 -15.5617 -15.3726 -3.9694
2 -11.4891 -15.2863 -3.72755
2 -7.64817 -15.1054 -3.83345
3 -3.80389 -15.2946 -3.84207
2 -0.0533736 -15.323 -3.9313
3 3.80249 -15.338 -3.75409
3 7.65195 -15.3042 -3.82472
2 11.4689 -15.0743 -3.77647
2 15.6456 -15.4632 -4.04795
1 -19.2283 -11.7744 -4.2364
2 -15.1542 -11.5419 -3.85905
1 -11.5003 -11.5457 -3.7444
2 -7.55644 -11.4243 -3.84168
2 -3.88538 -11.5036 -3.86594
3 0.0284594 -11.5379 -3.84771
2 3.67981 -11.4287 -3.81396
1 7.74287 -11.4771 -3.82966
2 11.3485 -11.4262 -3.88261
1 15.2683 -11.561 -3.71058
3 19.048 -11.826 -3.54695
3 -19.1339 -7.75594 -3.71918
2 -15.2338 -7.6018 -3.8567
2 -11.449 -7.64185 -3.85177
3 -7.49385 -7.54044 -3.842
1 -3.87598 -7.42653 -3.79235
1 -0.052198 -7.5722 -3.7932
2 3.73632 -7.63225 -3.86112
3 7.44903 -7.58116 -3.79711
2 11.4505 -7.54233 -3.68423
2 15.1911 -7.74065 -3.67274
1 19.1892 -7.81733 -3.43939
2 -22.8022 -3.84809 -3.76331
2 -18.9277 -3.9247 -3.66247
2 -15.2478 -3.76242 -3.93548
3 -11.5084 -3.92304 -3.85511
2 -7.66208 -3.73254 -3.83602
1 -3.84844 -3.8393 -3.76331
2 -0.103961 -3.77444 -3.74288
1 3.66348 -3.72171 -3.80751
3 7.52937 -3.84282 -3.74596
1 11.3824 -3.88744 -3.75963
1 15.3657 -3.88567 -3.75734
2 19.0027 -3.84924 -3.67311
1 22.3669 -4.17965 -4.05483
3 -22.7876 -0.0376758 -3.81548
2 -18.9508 -0.129096 -4.0363
3 -15.182 -0.0447941 -3.82948
3 -11.3784 -0.000460144 -3.86566
3 -7.5448 -0.0176446 -3.85947
3 -3.79496 -0.100347 -3.84518
3 -0.0160512 -0.11317 -3.80082
3 3.74644 -0.0951458 -3.73079
3 7.57589 -0.0909676 -3.63707
1 11.3187 -0.0561071 -3.9785
2 15.043 -0.0842592 -3.83314
3 18.9104 -0.0378355 -3.88032
3 22.8355 -0.0788564 -3.78569
3 -22.6818 3.77195 -3.83201
1 -18.8927 3.67299 -3.95412
2 -15.1699 3.88919 -3.90084
3 -11.4223 3.77387 -3.7817
2 -7.57517 3.77093 -3.9035
3 -3.94099 3.75876 -3.8378
2 -0.136409 3.75025 -3.83986
3 3.81024 3.71584 -3.71633
3 7.52595 3.70779 -3.56697
1 11.3361 3.86032 -3.73026
2 15.2171 3.95623 -3.74568
2 18.9668 3.66692 -3.72973
2 22.6443 3.98892 -3.93764
2 -19.0403 7.39462 -4.00821
2 -15.0943 7.5004 -3.81469
3 -11.3648 7.64721 -3.90518
3 -7.5805 7.6495 -3.77827
3 -3.84885 7.55532 -3.84598
3 -0.153121 7.54466 -3.81055
1 3.64758 7.43672 -3.77095
2 7.49758 7.55001 -3.83037
1 11.406 7.61273 -3.71263
2 15.212 7.63111 -3.72652
2 19.1908 7.71938 -3.91785
1 -19.9368 12.5485 -3.9063
1 -15.3017 11.4862 -3.89865
1 -11.4073 11.3839 -3.74327
3 -7.62524 11.4252 -3.65702
1 -3.85522 11.4322 -3.7471
1 -0.0443917 11.3023 -3.69169
1 3.67753 11.2935 -3.6808
3 7.65275 11.34 -3.74238
3 11.3425 11.4332 -3.76271
2 15.0446 11.4264 -3.82178
3 18.9446 11.4622 -3.87441
1 -15.3953 15.4519 -3.91471
1 -11.3057 15.0987 -3.72586
2 -7.62578 15.1686 -3.60615
3 -3.84467 15.1223 -3.65529
2 -0.0865986 15.127 -3.65138
2 3.66716 14.9844 -3.70515
2 7.57674 15.2342 -3.78307
3 11.2817 15.2192 -3.74765
3 15.0678 15.3175 -3.73413
2 -11.4648 18.9714 -3.7614
1 -7.71993 18.8361 -3.59738
2 -3.87404 18.978 -3.50307
2 -0.160387 18.9474 -3.64062
1 3.63441 18.9499 -3.6055
1 7.44378 19.2123 -3.87602
2 11.3489 19.0648 -3.79148
2 -4.14557 22.5523 -3.56727
2 -0.22083 22.6211 -3.56539
1 3.5787 22.5044 -3.69917
1 -7.58572 -22.7904 0.194373
1 -3.85106 -22.6459 0.0184377
3 -0.133028 -22.672 0.0296359
2 3.8943 -22.7029 0.0150438
3 7.40316 -22.8292 -0.123997
2 -11.6135 -19.1748 0.209925
3 -7.66558 -19.084 0.0337975
2 -3.81898 -19.0249 0.0734711
1 -0.160924 -19.0217 -0.115402
1 3.8121 -19.1464 -0.185695
3 7.61762 -19.1689 -0.16862
2 11.4802 -19.2514 -0.196965
3 -15.2058 -15.2402 0.028806
2 -11.6532 -15.1578 -0.0546207
1 -7.67321 -15.2132 0.00356984
2 -3.93606 -15.2352 -0.088701
2 -0.0434009 -15.2326 -0.117349
1 3.80742 -15.1866 -0.111429
2 7.69519 -15.2518 -0.147286
3 11.4837 -15.2854 -0.142609
1 15.3534 -15.2297 -0.070975
2 -19.277 -11.7422 -0.0432052
1 -15.1601 -11.4234 0.0362577
1 -11.4587 -11.493 -0.0348462
1 -7.58782 -11.2731 -0.0684652
1 -3.95558 -11.3605 0.102104
2 0.0536838 -11.4055 -0.0892913
2 3.75472 -11.3136 -0.0142596
1 7.58975 -11.41 -0.199993
1 11.4723 -11.4471 -0.0327064
3 15.1718 -11.4116 0.0476102
1 19.3024 -11.8442 0.368247
2 -22.7491 -7.50001 -0.0820056
1 -18.9449 -7.62268 -0.0151893
1 -15.1282 -7.55198 0.141425
3 -11.3665 -7.68097 -0.118364
2 -7.56326 -7.61206 -0.0583347
3 -3.88741 -7.57877 -0.0447738
1 0.05342 -7.59731 0.00879387
3 3.66129 -7.51233 -0.153351
2 7.49898 -7.53376 -0.0804222
2 11.3819 -7.65742 -0.0641692
3 15.1709 -7.65814 -0.0126365
1 19.0429 -7.64881 0.0638616
1 22.9472 -7.83009 0.276484
3 -22.7467 -3.91464 0.124682
3 -18.9305 -3.86814 -0.0379393
2 -15.2447 -3.84912 0.0870154
3 -11.4717 -3.70333 -0.113831
2 -7.77346 -3.70188 0.113138
3 -3.91611 -3.78991 -0.0576167
2 0.0462429 -3.7217 -0.126251
3 3.83875 -3.91293 -0.0323454
1 7.64651 -3.7959 0.0315159
2 11.3776 -3.93289 -0.0415049
3 15.2186 -3.85338 -0.0402284
2 19.1044 -3.8409 0.0655069
3 22.7721 -3.89912 0.00322399
1 -22.7452 0.0679289 -0.135104
1 -18.9102 -0.0352418 -0.103056
1 -15.2906 -0.068063 -0.0602532
2 -11.2041 0.170017 -0.107594
1 -7.48954 0.0360965 0.0714756
2 -3.76854 -0.0116587 -0.130763
3 -0.00201249 0.0353024 -0.0777744
2 3.81545 -0.00425798 0.00607205
1 7.68559 -0.0602183 0.0292695
3 11.399 -0.0686786 -0.0407026
3 15.2965 0.169165 0.00931357
3 19.0851 -0.0575059 -0.0865704
1 22.7995 -0.15838 -0.129323
2 -22.8577 3.62431 0.196521
2 -18.9111 3.78021 -0.120931
3 -15.2015 3.7561 -0.0504084
1 -11.3096 3.75082 -0.0372053
3 -7.51389 3.80689 0.0248798
1 -3.8428 3.79385 -0.0155123
3 -0.0175274 3.83842 -0.0373361
2 3.78558 3.69895 -0.059173
2 7.57229 3.82508 0.130161
2 11.2273 3.86666 0.0507795
2 15.2267 3.82279 -0.0258996
2 19.0014 3.85066 0.0458141
3 22.7685 3.9929 -0.0242893
2 -21.203 7.97259 -1.3433
1 -19.1066 7.58123 -0.140532
1 -15.2213 7.64564 -0.180579
3 -11.3034 7.59355 -0.0289827
3 -7.52605 7.69811 0.0746868
1 -3.69261 7.56515 0.0662547
3 -0.148979 7.59411 -0.000157969
1 3.83803 7.54888 0.0835144
1 7.48584 7.64747 0.05297
3 11.3951 7.70864 0.0286122
2 15.1459 7.50448 0.0041326
2 18.9732 7.84179 0.184967
2 22.3591 7.7451 0.232856
1 -19.2365 12.1725 0.0523425
2 -15.2673 11.4885 -0.127825
3 -11.4063 11.3867 -0.0425001
1 -7.56319 11.4459 0.0905581
3 -3.7666 11.3615 0.0729126
2 -0.112948 11.2905 0.257533
2 3.65066 11.4249 0.127178
3 7.6046 11.275 0.0497764
3 11.3221 11.5099 0.0734336
1 15.1377 11.4054 -0.0188289
2 19.981 12.5609 0.0659506
3 -15.1967 15.4001 0.113852
2 -11.3735 15.2363 0.132611
1 -7.54849 15.1302 0.0463341
1 -3.8677 15.1386 0.175206
3 -0.0837819 15.083 0.166702
1 3.69218 15.0747 0.141587
3 7.54109 15.1795 0.067862
2 11.3135 15.3816 0.0504357
2 15.0439 15.2902 -0.0455249
1 -11.6337 19.1548 0.132828
2 -7.55604 18.9431 0.154604
2 -3.92048 18.949 0.113809
2 -0.154711 18.9919 0.25222
3 3.65053 18.9036 0.187942
2 7.48242 19.1963 0.00738345
1 11.3992 19.2973 0.109521
2 -7.6029 22.5334 0.0776395
3 -4.01918 22.493 -0.0642104
1 -0.183053 22.6696 0.150807
3 3.60254 22.85 0.208416
2 7.47363 22.8388 0.0742665
3 -3.73884 -22.5654 3.75711
1 0.0507091 -22.667 3.72422
3 3.62089 -22.7158 3.68624
3 -11.774 -18.6011 3.81926
2 -7.7396 -18.9807 3.83812
3 -3.74414 -18.9725 3.64091
2 -0.0512647 -18.9524 3.70838
1 3.74218 -18.9853 3.72708
3 7.76332 -19.2259 3.71391
2 11.9397 -19.942 3.73445
3 -15.2352 -15.3851 3.90762
2 -11.4859 -15.0808 3.73841
1 -7.69973 -15.1215 3.84543
2 -3.73492 -15.2052 3.65086
2 -0.0449006 -15.2181 3.62009
3 3.88359 -15.2284 3.56772
2 7.57984 -15.1783 3.5665
2 11.3581 -15.3082 3.6579
3 15.1177 -15.4317 3.8028
2 -18.9704 -11.592 4.0059
3 -15.2203 -11.4588 3.92309
3 -11.4818 -11.4783 3.8193
2 -7.68436 -11.2764 3.72143
3 -3.85376 -11.2648 3.79761
2 0.0866006 -11.3062 3.7295
3 3.79085 -11.3353 3.60276
3 7.72399 -11.3912 3.68433
1 11.4524 -11.3942 3.75441
3 15.2783 -11.4779 3.86564
2 20.1962 -11.5317 5.5925
1 -18.9685 -7.63723 3.77456
3 -15.1128 -7.49183 3.80187
1 -11.3523 -7.53183 3.78456
2 -7.56618 -7.5831 3.6594
2 -3.79092 -7.52688 3.7993
1 0.00878263 -7.5375 3.76586
2 3.82543 -7.48631 3.74405
3 7.67691 -7.50643 3.77186
2 11.4619 -7.5163 3.73086
2 15.2167 -7.58582 3.79421
3 19.0347 -7.58094 3.68495
2 -22.7004 -3.79372 3.81388
2 -18.8421 -3.95695 3.80316
2 -15.2631 -3.75165 3.7182
2 -11.3973 -3.73579 3.73231
1 -7.55829 -3.84632 3.70277
2 -3.83511 -3.7307 3.63338
2 -0.010555 -3.74758 3.71303
2 3.9185 -3.77125 3.75886
3 7.6773 -3.79152 3.70808
3 11.3443 -3.91411 3.79715
1 15.2166 -3.79263 3.7718
3 19.0292 -3.85708 3.68505
2 22.7528 -3.87013 3.85183
2 -22.9699 0.103447 3.63734
1 -18.8488 0.117881 3.78239
1 -15.183 -0.114221 3.73226
1 -11.4907 0.147369 3.79664
3 -7.48178 0.0541449 3.79891
2 -3.86517 -0.0649481 3.82983
1 0.00895008 0.0362034 3.59731
2 3.90456 0.0158163 3.72642
3 7.63337 -0.0124031 3.79978
1 11.412 -0.0592651 3.77234
2 15.2772 -0.0493537 3.80249
2 19.0964 -0.0238692 3.6747
2 22.6623 0.177351 3.97306
2 -22.762 3.91591 3.84696
1 -18.7995 3.85969 3.64245
2 -15.1514 3.79423 3.78822
1 -11.3622 3.81357 3.64766
3 -7.41882 3.93356 3.79285
3 -3.63236 3.82128 3.72716
2 0.129373 3.8407 3.77066
1 3.88967 3.81312 3.93425
1 7.50883 3.80369 3.86849
2 11.3548 3.86393 3.75608
1 15.0813 3.81265 3.81837
2 19.0876 3.832 3.82341
3 22.7128 3.98392 3.83559
1 -18.8977 7.62323 3.78956
2 -15.1391 7.79682 3.82072
1 -11.3563 7.61774 3.81234
1 -7.62462 7.69533 3.79773
3 -3.70828 7.47436 3.88949
1 0.0281631 7.54184 3.81511
3 3.73445 7.53487 3.80103
3 7.54599 7.59883 3.78786
1 11.4144 7.63526 3.79307
2 15.1979 7.73857 3.99836
1 18.9881 7.81669 3.91157
2 -19.0203 11.5859 3.88657
1 -15.1841 11.5456 3.79348
2 -11.3351 11.3747 3.72673
1 -7.57801 11.3066 3.71545
3 -3.74591 11.3869 3.87827
2 -0.120458 11.3948 3.83232
3 3.86355 11.2793 3.77506
2 7.56714 11.4312 3.91557
2 11.3657 11.4921 3.80558
2 15.1375 11.4374 3.87582
3 18.7965 11.5119 3.89969
2 -15.1457 15.2939 3.84167
1 -11.3667 15.0741 3.86932
3 -7.58688 15.1803 3.90817
2 -3.76295 15.0367 3.78857
3 -0.216238 15.1895 3.9522
3 3.68688 15.0829 3.86742
3 7.48078 15.1017 3.936
2 11.4315 15.2611 3.85505
3 15.1731 15.4217 3.97524
1 -11.8269 19.6545 4.41651
3 -7.65052 18.9734 3.96124
3 -3.89886 18.8909 3.87662
2 -0.151186 19.0531 3.92168
2 3.7169 18.9378 3.99079
2 7.37469 19.0743 3.87068
2 11.7055 19.2515 4.10062
3 -3.81958 22.7142 4.12097
1 -0.144743 22.7731 4.02539
2 3.74481 22.6535 3.87835
1 -0.106762 -22.5813 7.59264
2 -11.546 -19.199 7.74398
2 -7.65121 -18.9159 7.50303
3 -3.86966 -18.8766 7.48396
3 -0.00989479 -18.6907 7.50496
1 3.88609 -19.1436 7.60403
2 7.46099 -18.7879 7.38473
1 11.0749 -19.1281 7.88078
2 -15.3496 -15.2033 7.92949
3 -11.7347 -15.3668 7.84746
1 -7.62399 -15.1529 7.59977
2 -3.85738 -14.9811 7.43643
1 0.0638046 -14.9859 7.50639
1 3.65653 -15.0825 7.40672
2 7.61195 -15.0231 7.45084
2 11.1181 -15.1271 7.6258
2 15.0243 -15.6134 7.66452
2 -18.7644 -11.3246 7.78503
2 -15.1141 -11.1784 7.44113
3 -11.4637 -11.1939 7.42957
1 -7.67446 -11.2848 7.54069
3 -3.82681 -11.3491 7.56484
3 -0.0174151 -11.2788 7.52045
2 3.75668 -11.2597 7.57618
1 7.56856 -11.2092 7.48222
2 11.3805 -11.286 7.63391
2 15.402 -11.5154 7.718
2 18.7996 -11.8902 7.85316
3 -18.8538 -7.47116 7.77365
1 -15.107 -7.57257 7.70561
1 -11.4111 -7.54908 7.5516
3 -7.63412 -7.52593 7.44633
3 -3.80455 -7.59296 7.5948
2 0.0528751 -7.5594 7.4471
1 3.83214 -7.43757 7.55502
3 7.66456 -7.68712 7.53753
1 11.4894 -7.7641 7.59752
1 15.3452 -7.73555 7.74612
2 18.9945 -7.48879 7.62715
2 -18.967 -3.65383 7.48529
3 -15.1047 -3.75043 7.58746
1 -11.3698 -3.68722 7.48198
1 -7.60418 -3.73233 7.6078
2 -3.83703 -3.72047 7.63777
3 -0.00496597 -3.93187 7.54722
3 3.8376 -3.80654 7.56392
3 7.75288 -3.79117 7.55473
2 11.532 -3.82581 7.62968
1 15.2777 -3.78986 7.59089
2 19.0723 -3.76769 7.47202
1 -22.5853 0.00190825 7.46643
2 -18.9681 0.133834 7.36282
1 -15.2308 0.0344898 7.47648
2 -11.3452 0.0147095 7.41811
3 -7.53033 0.070077 7.57579
2 -3.85933 0.172477 7.61049
2 0.0469942 0.0131493 7.68202
1 3.83323 0.0520662 7.54944
1 7.77519 0.0583296 7.49983
3 11.4508 0.0871103 7.60654
1 15.2192 -0.065393 7.56671
3 19.1804 -0.173898 7.43047
1 22.7121 0.0841206 7.13934
1 -19.0043 3.74159 7.66152
2 -15.1413 3.81205 7.39443
3 -11.2952 3.88892 7.53825
3 -7.55492 3.88893 7.45758
3 -3.74903 3.8965 7.56246
3 0.0639701 3.76804 7.58126
3 3.80569 3.76348 7.5086
3 7.62194 3.90609 7.56214
2 11.3487 3.90722 7.70204
2 15.3025 3.79977 7.61657
3 19.0326 3.84649 7.6593
2 -18.9523 7.54652 7.42603
1 -15.1885 7.58438 7.48584
2 -11.342 7.59354 7.61002
1 -7.53906 7.60624 7.52556
2 -3.63611 7.56913 7.69574
3 0.134355 7.59418 7.58692
3 3.78977 7.62466 7.58783
2 7.55091 7.61833 7.55
1 11.3828 7.71254 7.60856
3 15.1539 7.67329 7.70474
3 18.9346 7.7036 7.77033
3 -18.6971 11.2094 7.75838
1 -15.2398 11.3076 7.8049
2 -11.4086 11.3771 7.69167
3 -7.61832 11.2705 7.55778
3 -3.79507 11.2614 7.6831
3 0.0179922 11.3166 7.67867
3 3.78256 11.4303 7.6886
2 7.63214 11.5613 7.71206
1 11.448 11.6029 7.86314
1 15.2032 11.5593 7.78076
2 18.8579 11.41 7.64164
2 -15.2909 15.2383 8.03586
3 -11.4116 15.3656 7.79536
2 -7.51774 14.9791 7.80798
2 -3.86183 15.0448 7.64152
2 0.00353854 15.1379 7.74599
1 3.7743 15.2561 7.72419
2 7.62304 15.1334 7.63139
2 11.5524 15.3818 7.65106
1 15.2123 15.5045 7.8282
2 -11.4469 19.0296 7.99668
2 -7.42403 18.8293 7.7113
2 -3.97349 18.8373 7.6754
2 -0.110224 19.0553 7.8177
1 3.58557 19.1593 7.63635
3 7.45492 18.6924 7.56127
1 11.8515 19.3158 8.331
2 -0.0715697 22.8448 7.56766
3 -7.76684 -18.7808 11.2442
2 -3.87318 -19.0285 11.3626
3 -0.00799728 -18.9585 11.2088
1 4.0053 -19.1213 11.433
1 7.6241 -18.6689 11.429
2 -11.5441 -15.1103 11.405
1 -7.63254 -15.1509 11.2752
1 -3.73291 -15.1157 11.3535
1 0.0284257 -15.0704 11.2731
3 3.71258 -15.1023 11.1853
2 7.44674 -15.2007 11.2859
3 11.2742 -15.1817 11.3668
2 -15.1122 -11.2795 11.4983
2 -11.3903 -11.2893 11.2936
1 -7.61358 -11.3293 11.3592
2 -3.61856 -11.2844 11.2518
2 0.126198 -11.3601 11.4092
1 3.93252 -11.3582 11.2888
1 7.57138 -11.3627 11.3186
3 11.3562 -11.4315 11.4277
1 15.2227 -11.8338 11.5926
2 -18.8053 -7.70328 11.4547
1 -15.2586 -7.48855 11.3191
3 -11.4254 -7.44082 11.3889
1 -7.48001 -7.49229 11.3668
2 -3.70962 -7.34725 11.3285
2 0.111198 -7.51664 11.3902
1 3.84603 -7.44391 11.4519
3 7.70346 -7.50277 11.3603
3 11.4783 -7.63146 11.2832
2 15.1387 -7.68846 11.5091
2 19.0449 -8.28496 11.5537
2 -19.5595 -4.12558 11.991
2 -15.121 -3.67024 11.283
2 -11.419 -3.76572 11.2208
2 -7.41568 -3.7855 11.29
3 -3.74303 -3.78817 11.3726
3 0.021195 -3.70912 11.3329
1 3.75577 -3.69474 11.4737
1 7.69471 -3.83436 11.4141
2 11.4945 -3.88417 11.388
2 15.355 -4.05218 11.5217
1 19.4064 -3.8957 12.0194
2 -19.137 -0.110915 11.271
3 -15.072 -0.0521002 11.4444
2 -11.2916 -0.00612796 11.2685
3 -7.70701 0.0769489 11.4329
2 -3.79038 0.0994016 11.3956
3 0.116506 -0.0306281 11.3325
1 3.76348 0.0678461 11.3918
2 7.71698 0.144535 11.2902
1 11.4963 0.0816985 11.4494
1 15.3038 -0.0383044 11.4282
2 19.1759 0.146839 11.5952
1 -19.2625 3.92032 11.6387
1 -15.0877 3.71739 11.2688
2 -11.37 3.87674 11.2337
3 -7.46142 3.88216 11.3072
2 -3.86651 3.84369 11.3318
1 0.0728436 3.77252 11.2491
1 3.87579 3.7735 11.3504
2 7.68535 3.8392 11.4731
2 11.5752 3.93124 11.3034
3 15.1527 3.86357 11.4635
3 18.8798 3.75557 11.4389
3 -18.8119 7.61941 11.5057
2 -15.3558 7.51878 11.4028
2 -11.2769 7.52552 11.3629
3 -7.68434 7.61189 11.3408
1 -3.71688 7.47618 11.5042
2 0.0779695 7.52486 11.3584
2 3.8263 7.4434 11.3714
1 7.62939 7.55838 11.2798
3 11.4723 7.66829 11.389
1 15.305 7.79033 11.3947
1 18.832 7.87049 11.7659
1 -15.3138 11.5295 11.6015
2 -11.3562 11.4027 11.3449
2 -7.64108 11.3095 11.4432
3 -3.78079 11.3652 11.5363
3 -0.00686454 11.4315 11.5444
1 3.88415 11.538 11.4324
2 7.61517 11.4897 11.3638
3 11.5481 11.5837 11.495
2 15.2432 11.7368 11.4952
2 -11.6048 14.9775 11.426
2 -7.55401 15.0387 11.5426
2 -3.84957 15.0913 11.5341
2 0.126958 15.2815 11.572
3 3.75867 15.2634 11.6472
1 7.57335 15.3648 11.5468
2 11.674 15.4575 11.5927
2 -7.84982 18.9364 11.5536
1 -4.25337 19.4791 12.0253
2 -0.139599 19.3026 11.5239
2 4.09562 19.2131 11.608
2 8.02797 19.0016 11.4568
1 -7.86922 -15.4147 15.095
2 -3.67751 -15.242 15.1692
2 0.0635187 -15.1808 15.1023
1 3.78505 -15.3246 15.289
2 7.75448 -15.2321 15.1592
1 -11.737 -11.8111 15.3788
2 -7.64341 -11.4526 15.15
1 -3.66126 -11.4591 15.2085
2 -0.0734427 -11.321 15.0995
1 3.75376 -11.3726 15.1021
2 7.63583 -11.4211 14.9872
2 11.3851 -11.4173 15.2563
2 -15.2211 -8.22023 15.2893
2 -11.2976 -7.81791 15.1032
2 -7.62671 -7.53447 15.2041
2 -3.6022 -7.61585 15.1194
3 0.0144738 -7.4694 15.2918
2 3.90145 -7.61229 15.1137
2 7.73279 -7.59562 15.2402
2 11.3644 -7.57046 15.1967
3 15.1146 -7.7584 15.1424
1 -15.4904 -3.84046 15.612
2 -11.4769 -3.81821 15.0745
2 -7.48134 -3.88133 15.2454
2 -3.6829 -3.80263 15.1656
2 -0.0446927 -3.73641 15.1497
3 3.84703 -3.77729 15.0309
2 7.69444 -3.82902 15.1986
2 11.5618 -3.86385 15.2146
1 15.4784 -3.966 15.6496
2 -14.9976 0.0770093 15.0562
1 -11.4105 0.0394732 15.2599
2 -7.50814 0.107977 15.114
2 -3.75544 0.0364055 15.1808
1 0.095762 0.0403544 15.1025
2 3.8351 0.0235472 15.2559
2 7.66325 0.0122993 15.244
1 11.4822 -0.0202915 15.3797
2 15.2105 0.127368 15.2
2 -15.1568 3.68464 15.2253
2 -11.3572 3.81535 15.22
2 -7.49951 3.76856 15.0305
2 -3.68546 3.7861 15.1413
3 0.111357 3.66785 15.0953
3 3.86876 3.84018 15.0702
1 7.62734 3.86845 15.0083
2 11.4514 4.03558 15.149
3 15.1431 3.95082 15.2868
2 -15.3696 7.82755 15.3048
3 -11.2521 7.48534 15.1679
2 -7.47872 7.49664 15.0517
2 -3.71694 7.56435 15.1488
3 0.0819613 7.61984 15.1239
3 3.81736 7.53882 15.1157
2 7.59829 7.74041 15.1144
2 11.328 7.63747 15.2001
3 14.9476 7.79264 15.0301
2 -11.537 11.4278 15.2221
3 -7.65402 11.4371 15.2235
2 -3.80366 11.4582 15.2273
2 0.0717079 11.3748 15.1347
2 3.7531 11.448 15.1715
3 7.71314 11.554 15.1967
3 11.4245 11.6267 15.1864
2 -7.86343 14.9807 15.1632
1 -4.00338 15.152 15.3477
1 0.0349425 15.1322 15.294
2 3.74413 15.2851 15.4841
2 7.80339 15.4519 15.1852
3 -7.81245 -11.4925 18.5853
1 -3.60678 -11.4675 18.8683
3 0.116463 -11.2585 18.794
3 3.86013 -11.4666 18.8254
2 7.78167 -11.3994 19.159
1 -11.55 -7.86676 18.8008
3 -7.29925 -7.71073 18.873
1 -3.68087 -7.55612 19.0264
2 0.161452 -7.51788 18.9263
1 3.85542 -7.66164 18.8917
2 7.65848 -7.59065 18.8927
3 11.4329 -7.86943 18.8591
1 -11.4212 -3.92463 19.3239
2 -7.59765 -3.56386 18.8959
3 -3.69799 -3.74672 18.9874
1 0.0400882 -3.51704 18.9314
2 4.01248 -3.74356 19.0631
2 7.64906 -3.79544 19.0104
2 11.7316 -4.04098 19.3301
1 -11.7534 0.124425 19.7597
3 -7.57666 0.167696 18.9125
3 -3.77 0.110226 18.9882
2 0.0810694 0.0333853 18.9455
1 3.8672 0.107533 18.9255
3 7.76463 -0.0380681 18.9643
3 11.6806 0.0981097 19.0289
2 -11.4638 3.91765 18.9437
2 -7.57888 3.9591 19.0282
3 -3.74749 3.86898 18.9057
1 0.0104332 3.91519 18.8954
3 3.75167 3.97761 18.8492
3 7.62561 3.93747 19.0266
2 11.435 4.0717 19.1989
1 -11.3672 7.63891 18.8933
2 -7.56501 7.58057 19.0047
3 -3.74965 7.66485 19.0032
2 0.0524666 7.65149 18.8769
2 3.71141 7.65791 18.8972
2 7.53395 7.76067 18.9333
3 11.3199 7.79744 18.8484
2 -7.4454 11.2976 18.9784
1 -4.02651 11.4778 19.1431
1 -0.00892357 11.5667 19.1286
2 3.71668 11.6195 18.9811
2 7.65683 11.3392 18.8959
2 0.147246 -7.30853 22.5388
1 -3.9406 -3.73163 22.6447
2 -0.0174396 -3.65475 22.5934
2 3.81256 -3.83282 22.5046
2 -7.59101 -0.104716 22.7377
3 -3.64804 0.291634 22.646
2 -0.0567931 0.296856 22.5918
2 3.97371 0.197921 22.767
3 7.49118 -0.0416549 22.6431
2 -3.70573 3.86355 22.7387
3 0.0442728 3.78688 22.54
1 3.72981 3.77891 22.7678
1 0.03809 7.54255 22.6381
2 -5.78448 -5.76284 -22.6669
1 -1.65992 -5.72463 -22.841
2 2.0384 -5.79357 -22.5917
2 5.8781 -5.70359 -22.5622
2 -5.63693 -1.94532 -22.8102
2 -1.67754 -1.85874 -22.8875
2 2.11313 -1.92897 -22.8219
3 5.77995 -1.78063 -22.6955
3 -5.62958 1.78045 -22.6958
2 -1.87422 1.94537 -22.6962
2 2.12381 1.94155 -22.6298
1 5.908 1.7717 -22.5428
2 -5.59983 5.718 -22.5941
2 -1.88149 5.68762 -22.6544
2 1.95833 5.69659 -22.6356
2 5.63176 5.54776 -22.5182
2 -6.02872 -13.3462 -18.8605
2 -1.67958 -13.3677 -19.1951
2 2.59988 -13.5386 -18.9363
2 5.93358 -13.4847 -18.8083
3 -9.43166 -9.6375 -19.0364
3 -5.73195 -9.90349 -19.1671
1 -1.9221 -9.54972 -19.3134
3 1.77925 -9.57886 -19.1897
1 5.88035 -9.58356 -18.9326
3 9.58366 -9.4865 -18.6588
3 -13.4364 -6.23198 -18.9834
1 -9.50007 -6.09005 -19.0901
1 -5.7458 -5.90234 -19.3543
1 -1.8799 -5.97235 -19.0577
1 1.97174 -5.72046 -19.1175