LAMMPS DATA FOR MEAM SIMULATION

   4321   atoms
      3   atom types

  -33.55   33.55   xlo xhi
  -33.55   33.55   ylo yhi
  -33.55   33.55   zlo zhi

 Atoms

     1   3     0.00000    -7.84889   -23.54666
     2   3    -3.92444    -3.92444   -23.54666
     3   2     0.00000    -3.92444   -23.54666
     4   3     3.92444    -3.92444   -23.54666
     5   3    -7.84889     0.00000   -23.54666
     6   2    -3.92444     0.00000   -23.54666
     7   1     0.00000     0.00000   -23.54666
     8   3     3.92444     0.00000   -23.54666
     9   3     7.84889     0.00000   -23.54666
    10   3    -3.92444     3.92444   -23.54666
    11   3     0.00000     3.92444   -23.54666
    12   3     3.92444     3.92444   -23.54666
    13   3     0.00000     7.84889   -23.54666
    14   3    -7.84889   -11.77333   -19.62221
    15   1    -3.92444   -11.77333   -19.62221
    16   3     0.00000   -11.77333   -19.62221
    17   2     3.92444   -11.77333   -19.62221
    18   3     7.84889   -11.77333   -19.62221
    19   3   -11.77333    -7.84889   -19.62221
    20   3    -7.84889    -7.84889   -19.62221
    21   2    -3.92444    -7.84889   -19.62221
    22   2     0.00000    -7.84889   -19.62221
    23   1     3.92444    -7.84889   -19.62221
    24   2     7.84889    -7.84889   -19.62221
    25   3    11.77333    -7.84889   -19.62221
    26   3   -11.77333    -3.92444   -19.62221
    27   2    -7.84889    -3.92444   -19.62221
    28   2    -3.92444    -3.92444   -19.62221
    29   2     0.00000    -3.92444   -19.62221
    30   2     3.92444    -3.92444   -19.62221
    31   3     7.84889    -3.92444   -19.62221
    32   1    11.77333    -3.92444   -19.62221
    33   1   -11.77333     0.00000   -19.62221
    34   2    -7.84889     0.00000   -19.62221
    35   3    -3.92444     0.00000   -19.62221
    36   3     0.00000     0.00000   -19.62221
    37   1     3.92444     0.00000   -19.62221
    38   2     7.84889     0.00000   -19.62221
    39   3    11.77333     0.00000   -19.62221
    40   3   -11.77333     3.92444   -19.62221
    41   2    -7.84889     3.92444   -19.62221
    42   3    -3.92444     3.92444   -19.62221
    43   2     0.00000     3.92444   -19.62221
    44   3     3.92444     3.92444   -19.62221
    45   1     7.84889     3.92444   -19.62221
    46   3    11.77333     3.92444   -19.62221
    47   3   -11.77333     7.84889   -19.62221
    48   3    -7.84889     7.84889   -19.62221
    49   3    -3.92444     7.84889   -19.62221
    50   3     0.00000     7.84889   -19.62221
    51   1     3.92444     7.84889   -19.62221
    52   3     7.84889     7.84889   -19.62221
    53   3    11.77333     7.84889   -19.62221
    54   3    -7.84889    11.77333   -19.62221
    55   1    -3.92444    11.77333   -19.62221
    56   3     0.00000    11.77333   -19.62221
    57   3     3.92444    11.77333   -19.62221
    58   3     7.84889    11.77333   -19.62221
    59   3    -7.84889   -15.69777   -15.69777
    60   3    -3.92444   -15.69777   -15.69777
    61   2     0.00000   -15.69777   -15.69777
    62   2     3.92444   -15.69777   -15.69777
    63   2     7.84889   -15.69777   -15.69777
    64   3   -11.77333   -11.77333   -15.69777
    65   2    -7.84889   -11.77333   -15.69777
    66   3    -3.92444   -11.77333   -15.69777
    67   2     0.00000   -11.77333   -15.69777
    68   3     3.92444   -11.77333   -15.69777
    69   3     7.84889   -11.77333   -15.69777
    70   1    11.77333   -11.77333   -15.69777
    71   3   -15.69777    -7.84889   -15.69777
    72   1   -11.77333    -7.84889   -15.69777
    73   2    -7.84889    -7.84889   -15.69777
    74   1    -3.92444    -7.84889   -15.69777
    75   2     0.00000    -7.84889   -15.69777
    76   1     3.92444    -7.84889   -15.69777
    77   2     7.84889    -7.84889   -15.69777
    78   1    11.77333    -7.84889   -15.69777
    79   3    15.69777    -7.84889   -15.69777
    80   2   -15.69777    -3.92444   -15.69777
    81   1   -11.77333    -3.92444   -15.69777
    82   2    -7.84889    -3.92444   -15.69777
    83   1    -3.92444    -3.92444   -15.69777
    84   2     0.00000    -3.92444   -15.69777
    85   1     3.92444    -3.92444   -15.69777
    86   3     7.84889    -3.92444   -15.69777
    87   2    11.77333    -3.92444   -15.69777
    88   2    15.69777    -3.92444   -15.69777
    89   3   -15.69777     0.00000   -15.69777
    90   2   -11.77333     0.00000   -15.69777
    91   1    -7.84889     0.00000   -15.69777
    92   2    -3.92444     0.00000   -15.69777
    93   2     0.00000     0.00000   -15.69777
    94   2     3.92444     0.00000   -15.69777
    95   2     7.84889     0.00000   -15.69777
    96   1    11.77333     0.00000   -15.69777
    97   1    15.69777     0.00000   -15.69777
    98   1   -15.69777     3.92444   -15.69777
    99   1   -11.77333     3.92444   -15.69777
   100   1    -7.84889     3.92444   -15.69777
   101   1    -3.92444     3.92444   -15.69777
   102   1     0.00000     3.92444   -15.69777
   103   1     3.92444     3.92444   -15.69777
   104   2     7.84889     3.92444   -15.69777
   105   3    11.77333     3.92444   -15.69777
   106   3    15.69777     3.92444   -15.69777
   107   3   -15.69777     7.84889   -15.69777
   108   1   -11.77333     7.84889   -15.69777
   109   2    -7.84889     7.84889   -15.69777
   110   1    -3.92444     7.84889   -15.69777
   111   2     0.00000     7.84889   -15.69777
   112   1     3.92444     7.84889   -15.69777
   113   2     7.84889     7.84889   -15.69777
   114   3    11.77333     7.84889   -15.69777
   115   3    15.69777     7.84889   -15.69777
   116   3   -11.77333    11.77333   -15.69777
   117   2    -7.84889    11.77333   -15.69777
   118   2    -3.92444    11.77333   -15.69777
   119   1     0.00000    11.77333   -15.69777
   120   2     3.92444    11.77333   -15.69777
   121   3     7.84889    11.77333   -15.69777
   122   3    11.77333    11.77333   -15.69777
   123   3    -7.84889    15.69777   -15.69777
   124   3    -3.92444    15.69777   -15.69777
   125   2     0.00000    15.69777   -15.69777
   126   3     3.92444    15.69777   -15.69777
   127   2     7.84889    15.69777   -15.69777
   128   3    -7.84889   -19.62221   -11.77333
   129   1    -3.92444   -19.62221   -11.77333
   130   3     0.00000   -19.62221   -11.77333
   131   2     3.92444   -19.62221   -11.77333
   132   3     7.84889   -19.62221   -11.77333
   133   3   -11.77333   -15.69777   -11.77333
   134   2    -7.84889   -15.69777   -11.77333
   135   2    -3.92444   -15.69777   -11.77333
   136   1     0.00000   -15.69777   -11.77333
   137   1     3.92444   -15.69777   -11.77333
   138   3     7.84889   -15.69777   -11.77333
   139   1    11.77333   -15.69777   -11.77333
   140   2   -15.69777   -11.77333   -11.77333
   141   1   -11.77333   -11.77333   -11.77333
   142   2    -7.84889   -11.77333   -11.77333
   143   1    -3.92444   -11.77333   -11.77333
   144   2     0.00000   -11.77333   -11.77333
   145   1     3.92444   -11.77333   -11.77333
   146   2     7.84889   -11.77333   -11.77333
   147   2    11.77333   -11.77333   -11.77333
   148   2    15.69777   -11.77333   -11.77333
   149   3   -19.62221    -7.84889   -11.77333
   150   2   -15.69777    -7.84889   -11.77333
   151   2   -11.77333    -7.84889   -11.77333
   152   2    -7.84889    -7.84889   -11.77333
   153   2    -3.92444    -7.84889   -11.77333
   154   2     0.00000    -7.84889   -11.77333
   155   2     3.92444    -7.84889   -11.77333
   156   2     7.84889    -7.84889   -11.77333
   157   3    11.77333    -7.84889   -11.77333
   158   3    15.69777    -7.84889   -11.77333
   159   3    19.62221    -7.84889   -11.77333
   160   2   -19.62221    -3.92444   -11.77333
   161   2   -15.69777    -3.92444   -11.77333
   162   2   -11.77333    -3.92444   -11.77333
   163   2    -7.84889    -3.92444   -11.77333
   164   2    -3.92444    -3.92444   -11.77333
   165   2     0.00000    -3.92444   -11.77333
   166   2     3.92444    -3.92444   -11.77333
   167   1     7.84889    -3.92444   -11.77333
   168   1    11.77333    -3.92444   -11.77333
   169   1    15.69777    -3.92444   -11.77333
   170   3    19.62221    -3.92444   -11.77333
   171   2   -19.62221     0.00000   -11.77333
   172   1   -15.69777     0.00000   -11.77333
   173   2   -11.77333     0.00000   -11.77333
   174   3    -7.84889     0.00000   -11.77333
   175   2    -3.92444     0.00000   -11.77333
   176   1     0.00000     0.00000   -11.77333
   177   2     3.92444     0.00000   -11.77333
   178   2     7.84889     0.00000   -11.77333
   179   2    11.77333     0.00000   -11.77333
   180   1    15.69777     0.00000   -11.77333
   181   3    19.62221     0.00000   -11.77333
   182   1   -19.62221     3.92444   -11.77333
   183   1   -15.69777     3.92444   -11.77333
   184   3   -11.77333     3.92444   -11.77333
   185   2    -7.84889     3.92444   -11.77333
   186   2    -3.92444     3.92444   -11.77333
   187   1     0.00000     3.92444   -11.77333
   188   2     3.92444     3.92444   -11.77333
   189   1     7.84889     3.92444   -11.77333
   190   1    11.77333     3.92444   -11.77333
   191   2    15.69777     3.92444   -11.77333
   192   1    19.62221     3.92444   -11.77333
   193   3   -19.62221     7.84889   -11.77333
   194   1   -15.69777     7.84889   -11.77333
   195   2   -11.77333     7.84889   -11.77333
   196   2    -7.84889     7.84889   -11.77333
   197   1    -3.92444     7.84889   -11.77333
   198   2     0.00000     7.84889   -11.77333
   199   1     3.92444     7.84889   -11.77333
   200   1     7.84889     7.84889   -11.77333
   201   2    11.77333     7.84889   -11.77333
   202   1    15.69777     7.84889   -11.77333
   203   2    19.62221     7.84889   -11.77333
   204   2   -15.69777    11.77333   -11.77333
   205   2   -11.77333    11.77333   -11.77333
   206   1    -7.84889    11.77333   -11.77333
   207   1    -3.92444    11.77333   -11.77333
   208   1     0.00000    11.77333   -11.77333
   209   1     3.92444    11.77333   -11.77333
   210   2     7.84889    11.77333   -11.77333
   211   2    11.77333    11.77333   -11.77333
   212   2    15.69777    11.77333   -11.77333
   213   3   -11.77333    15.69777   -11.77333
   214   3    -7.84889    15.69777   -11.77333
   215   3    -3.92444    15.69777   -11.77333
   216   2     0.00000    15.69777   -11.77333
   217   3     3.92444    15.69777   -11.77333
   218   3     7.84889    15.69777   -11.77333
   219   3    11.77333    15.69777   -11.77333
   220   3    -7.84889    19.62221   -11.77333
   221   3    -3.92444    19.62221   -11.77333
   222   3     0.00000    19.62221   -11.77333
   223   3     3.92444    19.62221   -11.77333
   224   2     7.84889    19.62221   -11.77333
   225   3     0.00000   -23.54666    -7.84889
   226   2   -11.77333   -19.62221    -7.84889
   227   2    -7.84889   -19.62221    -7.84889
   228   1    -3.92444   -19.62221    -7.84889
   229   2     0.00000   -19.62221    -7.84889
   230   1     3.92444   -19.62221    -7.84889
   231   1     7.84889   -19.62221    -7.84889
   232   3    11.77333   -19.62221    -7.84889
   233   3   -15.69777   -15.69777    -7.84889
   234   1   -11.77333   -15.69777    -7.84889
   235   1    -7.84889   -15.69777    -7.84889
   236   1    -3.92444   -15.69777    -7.84889
   237   1     0.00000   -15.69777    -7.84889
   238   2     3.92444   -15.69777    -7.84889
   239   2     7.84889   -15.69777    -7.84889
   240   2    11.77333   -15.69777    -7.84889
   241   1    15.69777   -15.69777    -7.84889
   242   3   -19.62221   -11.77333    -7.84889
   243   1   -15.69777   -11.77333    -7.84889
   244   2   -11.77333   -11.77333    -7.84889
   245   2    -7.84889   -11.77333    -7.84889
   246   2    -3.92444   -11.77333    -7.84889
   247   2     0.00000   -11.77333    -7.84889
   248   2     3.92444   -11.77333    -7.84889
   249   2     7.84889   -11.77333    -7.84889
   250   3    11.77333   -11.77333    -7.84889
   251   2    15.69777   -11.77333    -7.84889
   252   3    19.62221   -11.77333    -7.84889
   253   3   -19.62221    -7.84889    -7.84889
   254   3   -15.69777    -7.84889    -7.84889
   255   1   -11.77333    -7.84889    -7.84889
   256   1    -7.84889    -7.84889    -7.84889
   257   2    -3.92444    -7.84889    -7.84889
   258   2     0.00000    -7.84889    -7.84889
   259   1     3.92444    -7.84889    -7.84889
   260   2     7.84889    -7.84889    -7.84889
   261   1    11.77333    -7.84889    -7.84889
   262   3    15.69777    -7.84889    -7.84889
   263   3    19.62221    -7.84889    -7.84889
   264   2   -19.62221    -3.92444    -7.84889
   265   2   -15.69777    -3.92444    -7.84889
   266   1   -11.77333    -3.92444    -7.84889
   267   2    -7.84889    -3.92444    -7.84889
   268   2    -3.92444    -3.92444    -7.84889
   269   1     0.00000    -3.92444    -7.84889
   270   2     3.92444    -3.92444    -7.84889
   271   2     7.84889    -3.92444    -7.84889
   272   2    11.77333    -3.92444    -7.84889
   273   2    15.69777    -3.92444    -7.84889
   274   3    19.62221    -3.92444    -7.84889
   275   3   -23.54666     0.00000    -7.84889
   276   2   -19.62221     0.00000    -7.84889
   277   1   -15.69777     0.00000    -7.84889
   278   2   -11.77333     0.00000    -7.84889
   279   1    -7.84889     0.00000    -7.84889
   280   2    -3.92444     0.00000    -7.84889
   281   1     0.00000     0.00000    -7.84889
   282   2     3.92444     0.00000    -7.84889
   283   1     7.84889     0.00000    -7.84889
   284   1    11.77333     0.00000    -7.84889
   285   2    15.69777     0.00000    -7.84889
   286   2    19.62221     0.00000    -7.84889
   287   3    23.54666     0.00000    -7.84889
   288   2   -19.62221     3.92444    -7.84889
   289   3   -15.69777     3.92444    -7.84889
   290   2   -11.77333     3.92444    -7.84889
   291   2    -7.84889     3.92444    -7.84889
   292   1    -3.92444     3.92444    -7.84889
   293   1     0.00000     3.92444    -7.84889
   294   2     3.92444     3.92444    -7.84889
   295   1     7.84889     3.92444    -7.84889
   296   2    11.77333     3.92444    -7.84889
   297   2    15.69777     3.92444    -7.84889
   298   3    19.62221     3.92444    -7.84889
   299   3   -19.62221     7.84889    -7.84889
   300   2   -15.69777     7.84889    -7.84889
   301   2   -11.77333     7.84889    -7.84889
   302   2    -7.84889     7.84889    -7.84889
   303   1    -3.92444     7.84889    -7.84889
   304   1     0.00000     7.84889    -7.84889
   305   1     3.92444     7.84889    -7.84889
   306   2     7.84889     7.84889    -7.84889
   307   2    11.77333     7.84889    -7.84889
   308   2    15.69777     7.84889    -7.84889
   309   3    19.62221     7.84889    -7.84889
   310   3   -19.62221    11.77333    -7.84889
   311   3   -15.69777    11.77333    -7.84889
   312   2   -11.77333    11.77333    -7.84889
   313   2    -7.84889    11.77333    -7.84889
   314   2    -3.92444    11.77333    -7.84889
   315   1     0.00000    11.77333    -7.84889
   316   2     3.92444    11.77333    -7.84889
   317   1     7.84889    11.77333    -7.84889
   318   1    11.77333    11.77333    -7.84889
   319   1    15.69777    11.77333    -7.84889
   320   3    19.62221    11.77333    -7.84889
   321   3   -15.69777    15.69777    -7.84889
   322   2   -11.77333    15.69777    -7.84889
   323   1    -7.84889    15.69777    -7.84889
   324   1    -3.92444    15.69777    -7.84889
   325   3     0.00000    15.69777    -7.84889
   326   1     3.92444    15.69777    -7.84889
   327   2     7.84889    15.69777    -7.84889
   328   2    11.77333    15.69777    -7.84889
   329   3    15.69777    15.69777    -7.84889
   330   3   -11.77333    19.62221    -7.84889
   331   1    -7.84889    19.62221    -7.84889
   332   2    -3.92444    19.62221    -7.84889
   333   3     0.00000    19.62221    -7.84889
   334   3     3.92444    19.62221    -7.84889
   335   3     7.84889    19.62221    -7.84889
   336   2    11.77333    19.62221    -7.84889
   337   3     0.00000    23.54666    -7.84889
   338   3    -3.92444   -23.54666    -3.92444
   339   2     0.00000   -23.54666    -3.92444
   340   3     3.92444   -23.54666    -3.92444
   341   3   -11.77333   -19.62221    -3.92444
   342   1    -7.84889   -19.62221    -3.92444
   343   1    -3.92444   -19.62221    -3.92444
   344   2     0.00000   -19.62221    -3.92444
   345   2     3.92444   -19.62221    -3.92444
   346   3     7.84889   -19.62221    -3.92444
   347   3    11.77333   -19.62221    -3.92444
   348   3   -15.69777   -15.69777    -3.92444
   349   2   -11.77333   -15.69777    -3.92444
   350   1    -7.84889   -15.69777    -3.92444
   351   2    -3.92444   -15.69777    -3.92444
   352   2     0.00000   -15.69777    -3.92444
   353   1     3.92444   -15.69777    -3.92444
   354   2     7.84889   -15.69777    -3.92444
   355   3    11.77333   -15.69777    -3.92444
   356   1    15.69777   -15.69777    -3.92444
   357   3   -19.62221   -11.77333    -3.92444
   358   1   -15.69777   -11.77333    -3.92444
   359   1   -11.77333   -11.77333    -3.92444
   360   1    -7.84889   -11.77333    -3.92444
   361   2    -3.92444   -11.77333    -3.92444
   362   1     0.00000   -11.77333    -3.92444
   363   1     3.92444   -11.77333    -3.92444
   364   2     7.84889   -11.77333    -3.92444
   365   1    11.77333   -11.77333    -3.92444
   366   1    15.69777   -11.77333    -3.92444
   367   3    19.62221   -11.77333    -3.92444
   368   1   -19.62221    -7.84889    -3.92444
   369   1   -15.69777    -7.84889    -3.92444
   370   1   -11.77333    -7.84889    -3.92444
   371   1    -7.84889    -7.84889    -3.92444
   372   1    -3.92444    -7.84889    -3.92444
   373   2     0.00000    -7.84889    -3.92444
   374   1     3.92444    -7.84889    -3.92444
   375   1     7.84889    -7.84889    -3.92444
   376   2    11.77333    -7.84889    -3.92444
   377   2    15.69777    -7.84889    -3.92444
   378   3    19.62221    -7.84889    -3.92444
   379   3   -23.54666    -3.92444    -3.92444
   380   2   -19.62221    -3.92444    -3.92444
   381   2   -15.69777    -3.92444    -3.92444
   382   1   -11.77333    -3.92444    -3.92444
   383   2    -7.84889    -3.92444    -3.92444
   384   1    -3.92444    -3.92444    -3.92444
   385   2     0.00000    -3.92444    -3.92444
   386   2     3.92444    -3.92444    -3.92444
   387   2     7.84889    -3.92444    -3.92444
   388   1    11.77333    -3.92444    -3.92444
   389   2    15.69777    -3.92444    -3.92444
   390   2    19.62221    -3.92444    -3.92444
   391   3    23.54666    -3.92444    -3.92444
   392   3   -23.54666     0.00000    -3.92444
   393   2   -19.62221     0.00000    -3.92444
   394   2   -15.69777     0.00000    -3.92444
   395   2   -11.77333     0.00000    -3.92444
   396   2    -7.84889     0.00000    -3.92444
   397   2    -3.92444     0.00000    -3.92444
   398   1     0.00000     0.00000    -3.92444
   399   1     3.92444     0.00000    -3.92444
   400   2     7.84889     0.00000    -3.92444
   401   2    11.77333     0.00000    -3.92444
   402   2    15.69777     0.00000    -3.92444
   403   3    19.62221     0.00000    -3.92444
   404   3    23.54666     0.00000    -3.92444
   405   1   -23.54666     3.92444    -3.92444
   406   1   -19.62221     3.92444    -3.92444
   407   2   -15.69777     3.92444    -3.92444
   408   2   -11.77333     3.92444    -3.92444
   409   2    -7.84889     3.92444    -3.92444
   410   2    -3.92444     3.92444    -3.92444
   411   2     0.00000     3.92444    -3.92444
   412   2     3.92444     3.92444    -3.92444
   413   2     7.84889     3.92444    -3.92444
   414   2    11.77333     3.92444    -3.92444
   415   2    15.69777     3.92444    -3.92444
   416   1    19.62221     3.92444    -3.92444
   417   3    23.54666     3.92444    -3.92444
   418   2   -19.62221     7.84889    -3.92444
   419   1   -15.69777     7.84889    -3.92444
   420   2   -11.77333     7.84889    -3.92444
   421   2    -7.84889     7.84889    -3.92444
   422   1    -3.92444     7.84889    -3.92444
   423   1     0.00000     7.84889    -3.92444
   424   2     3.92444     7.84889    -3.92444
   425   1     7.84889     7.84889    -3.92444
   426   2    11.77333     7.84889    -3.92444
   427   2    15.69777     7.84889    -3.92444
   428   2    19.62221     7.84889    -3.92444
   429   1   -19.62221    11.77333    -3.92444
   430   1   -15.69777    11.77333    -3.92444
   431   2   -11.77333    11.77333    -3.92444
   432   2    -7.84889    11.77333    -3.92444
   433   1    -3.92444    11.77333    -3.92444
   434   1     0.00000    11.77333    -3.92444
   435   2     3.92444    11.77333    -3.92444
   436   2     7.84889    11.77333    -3.92444
   437   1    11.77333    11.77333    -3.92444
   438   1    15.69777    11.77333    -3.92444
   439   2    19.62221    11.77333    -3.92444
   440   3   -15.69777    15.69777    -3.92444
   441   2   -11.77333    15.69777    -3.92444
   442   2    -7.84889    15.69777    -3.92444
   443   1    -3.92444    15.69777    -3.92444
   444   1     0.00000    15.69777    -3.92444
   445   2     3.92444    15.69777    -3.92444
   446   1     7.84889    15.69777    -3.92444
   447   1    11.77333    15.69777    -3.92444
   448   1    15.69777    15.69777    -3.92444
   449   3   -11.77333    19.62221    -3.92444
   450   2    -7.84889    19.62221    -3.92444
   451   1    -3.92444    19.62221    -3.92444
   452   1     0.00000    19.62221    -3.92444
   453   2     3.92444    19.62221    -3.92444
   454   3     7.84889    19.62221    -3.92444
   455   3    11.77333    19.62221    -3.92444
   456   3    -3.92444    23.54666    -3.92444
   457   3     0.00000    23.54666    -3.92444
   458   3     3.92444    23.54666    -3.92444
   459   3    -7.84889   -23.54666     0.00000
   460   2    -3.92444   -23.54666     0.00000
   461   3     0.00000   -23.54666     0.00000
   462   2     3.92444   -23.54666     0.00000
   463   3     7.84889   -23.54666     0.00000
   464   2   -11.77333   -19.62221     0.00000
   465   3    -7.84889   -19.62221     0.00000
   466   2    -3.92444   -19.62221     0.00000
   467   2     0.00000   -19.62221     0.00000
   468   1     3.92444   -19.62221     0.00000
   469   3     7.84889   -19.62221     0.00000
   470   3    11.77333   -19.62221     0.00000
   471   2   -15.69777   -15.69777     0.00000
   472   2   -11.77333   -15.69777     0.00000
   473   3    -7.84889   -15.69777     0.00000
   474   2    -3.92444   -15.69777     0.00000
   475   2     0.00000   -15.69777     0.00000
   476   2     3.92444   -15.69777     0.00000
   477   2     7.84889   -15.69777     0.00000
   478   2    11.77333   -15.69777     0.00000
   479   3    15.69777   -15.69777     0.00000
   480   3   -19.62221   -11.77333     0.00000
   481   2   -15.69777   -11.77333     0.00000
   482   2   -11.77333   -11.77333     0.00000
   483   2    -7.84889   -11.77333     0.00000
   484   2    -3.92444   -11.77333     0.00000
   485   2     0.00000   -11.77333     0.00000
   486   1     3.92444   -11.77333     0.00000
   487   2     7.84889   -11.77333     0.00000
   488   1    11.77333   -11.77333     0.00000
   489   1    15.69777   -11.77333     0.00000
   490   3    19.62221   -11.77333     0.00000
   491   3   -23.54666    -7.84889     0.00000
   492   2   -19.62221    -7.84889     0.00000
   493   2   -15.69777    -7.84889     0.00000
   494   2   -11.77333    -7.84889     0.00000
   495   2    -7.84889    -7.84889     0.00000
   496   1    -3.92444    -7.84889     0.00000
   497   2     0.00000    -7.84889     0.00000
   498   1     3.92444    -7.84889     0.00000
   499   2     7.84889    -7.84889     0.00000
   500   2    11.77333    -7.84889     0.00000
   501   2    15.69777    -7.84889     0.00000
   502   3    19.62221    -7.84889     0.00000
   503   3    23.54666    -7.84889     0.00000
   504   3   -23.54666    -3.92444     0.00000
   505   2   -19.62221    -3.92444     0.00000
   506   1   -15.69777    -3.92444     0.00000
   507   1   -11.77333    -3.92444     0.00000
   508   2    -7.84889    -3.92444     0.00000
   509   2    -3.92444    -3.92444     0.00000
   510   1     0.00000    -3.92444     0.00000
   511   1     3.92444    -3.92444     0.00000
   512   1     7.84889    -3.92444     0.00000
   513   2    11.77333    -3.92444     0.00000
   514   1    15.69777    -3.92444     0.00000
   515   2    19.62221    -3.92444     0.00000
   516   3    23.54666    -3.92444     0.00000
   517   1   -23.54666     0.00000     0.00000
   518   2   -19.62221     0.00000     0.00000
   519   1   -15.69777     0.00000     0.00000
   520   1   -11.77333     0.00000     0.00000
   521   2    -7.84889     0.00000     0.00000
   522   1    -3.92444     0.00000     0.00000
   523   1     0.00000     0.00000     0.00000
   524   2     3.92444     0.00000     0.00000
   525   1     7.84889     0.00000     0.00000
   526   2    11.77333     0.00000     0.00000
   527   1    15.69777     0.00000     0.00000
   528   1    19.62221     0.00000     0.00000
   529   3    23.54666     0.00000     0.00000
   530   3   -23.54666     3.92444     0.00000
   531   2   -19.62221     3.92444     0.00000
   532   3   -15.69777     3.92444     0.00000
   533   2   -11.77333     3.92444     0.00000
   534   1    -7.84889     3.92444     0.00000
   535   2    -3.92444     3.92444     0.00000
   536   1     0.00000     3.92444     0.00000
   537   2     3.92444     3.92444     0.00000
   538   2     7.84889     3.92444     0.00000
   539   1    11.77333     3.92444     0.00000
   540   2    15.69777     3.92444     0.00000
   541   1    19.62221     3.92444     0.00000
   542   3    23.54666     3.92444     0.00000
   543   3   -23.54666     7.84889     0.00000
   544   3   -19.62221     7.84889     0.00000
   545   2   -15.69777     7.84889     0.00000
   546   2   -11.77333     7.84889     0.00000
   547   2    -7.84889     7.84889     0.00000
   548   2    -3.92444     7.84889     0.00000
   549   1     0.00000     7.84889     0.00000
   550   1     3.92444     7.84889     0.00000
   551   2     7.84889     7.84889     0.00000
   552   2    11.77333     7.84889     0.00000
   553   2    15.69777     7.84889     0.00000
   554   2    19.62221     7.84889     0.00000
   555   3    23.54666     7.84889     0.00000
   556   2   -19.62221    11.77333     0.00000
   557   2   -15.69777    11.77333     0.00000
   558   2   -11.77333    11.77333     0.00000
   559   1    -7.84889    11.77333     0.00000
   560   1    -3.92444    11.77333     0.00000
   561   2     0.00000    11.77333     0.00000
   562   1     3.92444    11.77333     0.00000
   563   2     7.84889    11.77333     0.00000
   564   1    11.77333    11.77333     0.00000
   565   2    15.69777    11.77333     0.00000
   566   1    19.62221    11.77333     0.00000
   567   2   -15.69777    15.69777     0.00000
   568   2   -11.77333    15.69777     0.00000
   569   2    -7.84889    15.69777     0.00000
   570   2    -3.92444    15.69777     0.00000
   571   2     0.00000    15.69777     0.00000
   572   2     3.92444    15.69777     0.00000
   573   1     7.84889    15.69777     0.00000
   574   2    11.77333    15.69777     0.00000
   575   1    15.69777    15.69777     0.00000
   576   3   -11.77333    19.62221     0.00000
   577   3    -7.84889    19.62221     0.00000
   578   1    -3.92444    19.62221     0.00000
   579   2     0.00000    19.62221     0.00000
   580   3     3.92444    19.62221     0.00000
   581   3     7.84889    19.62221     0.00000
   582   2    11.77333    19.62221     0.00000
   583   3    -7.84889    23.54666     0.00000
   584   3    -3.92444    23.54666     0.00000
   585   3     0.00000    23.54666     0.00000
   586   3     3.92444    23.54666     0.00000
   587   3     7.84889    23.54666     0.00000
   588   3    -3.92444   -23.54666     3.92444
   589   1     0.00000   -23.54666     3.92444
   590   1     3.92444   -23.54666     3.92444
   591   3   -11.77333   -19.62221     3.92444
   592   2    -7.84889   -19.62221     3.92444
   593   2    -3.92444   -19.62221     3.92444
   594   1     0.00000   -19.62221     3.92444
   595   2     3.92444   -19.62221     3.92444
   596   3     7.84889   -19.62221     3.92444
   597   1    11.77333   -19.62221     3.92444
   598   2   -15.69777   -15.69777     3.92444
   599   3   -11.77333   -15.69777     3.92444
   600   2    -7.84889   -15.69777     3.92444
   601   1    -3.92444   -15.69777     3.92444
   602   2     0.00000   -15.69777     3.92444
   603   1     3.92444   -15.69777     3.92444
   604   2     7.84889   -15.69777     3.92444
   605   2    11.77333   -15.69777     3.92444
   606   2    15.69777   -15.69777     3.92444
   607   3   -19.62221   -11.77333     3.92444
   608   3   -15.69777   -11.77333     3.92444
   609   2   -11.77333   -11.77333     3.92444
   610   2    -7.84889   -11.77333     3.92444
   611   2    -3.92444   -11.77333     3.92444
   612   2     0.00000   -11.77333     3.92444
   613   2     3.92444   -11.77333     3.92444
   614   1     7.84889   -11.77333     3.92444
   615   2    11.77333   -11.77333     3.92444
   616   3    15.69777   -11.77333     3.92444
   617   1    19.62221   -11.77333     3.92444
   618   2   -19.62221    -7.84889     3.92444
   619   2   -15.69777    -7.84889     3.92444
   620   2   -11.77333    -7.84889     3.92444
   621   2    -7.84889    -7.84889     3.92444
   622   1    -3.92444    -7.84889     3.92444
   623   1     0.00000    -7.84889     3.92444
   624   2     3.92444    -7.84889     3.92444
   625   1     7.84889    -7.84889     3.92444
   626   2    11.77333    -7.84889     3.92444
   627   3    15.69777    -7.84889     3.92444
   628   3    19.62221    -7.84889     3.92444
   629   3   -23.54666    -3.92444     3.92444
   630   1   -19.62221    -3.92444     3.92444
   631   1   -15.69777    -3.92444     3.92444
   632   2   -11.77333    -3.92444     3.92444
   633   1    -7.84889    -3.92444     3.92444
   634   1    -3.92444    -3.92444     3.92444