4321
 Atoms. Timestep: 4193
3 0.10968 -7.57657 -22.4369
3 -3.8752 -3.66675 -23.0537
2 -0.0975612 -3.43857 -23.2721
3 4.27989 -4.06904 -22.4397
3 -7.53123 0.126222 -22.9547
2 -3.98547 0.12608 -22.9217
1 -0.136278 0.200202 -22.9503
3 4.05791 0.305573 -22.9003
3 7.89612 0.163462 -22.7634
3 -3.97577 3.87219 -22.8813
3 -0.00452538 3.97137 -22.8448
3 3.90726 4.20053 -22.9628
3 0.215124 7.82331 -22.7289
3 -7.81594 -11.4449 -19.1571
1 -4.08484 -11.6697 -19.3353
3 0.0148788 -11.5548 -19.2604
2 4.1119 -12.1135 -19.6068
3 7.96014 -11.5197 -19.1724
3 -11.3014 -7.84466 -19.1267
3 -7.73884 -7.95362 -19.3392
2 -3.97184 -7.74194 -19.4884
2 0.0409297 -7.71488 -19.7816
1 3.89618 -7.69233 -19.3195
2 7.9263 -7.64736 -19.1216
3 11.4852 -7.70265 -18.9023
3 -11.5222 -3.80266 -19.314
2 -7.70703 -3.87249 -19.4761
2 -3.84977 -3.76691 -19.4585
2 0.0226704 -3.68371 -19.5934
2 4.10885 -3.91413 -19.9469
3 7.92924 -3.72243 -19.268
1 11.5643 -3.75172 -19.0168
1 -11.5285 0.139662 -19.3411
2 -7.84675 0.104573 -19.4247
3 -3.92706 0.0348142 -19.3126
3 0.0158628 0.0543542 -19.4162
1 3.88985 0.0933165 -19.4207
2 7.81023 0.158774 -19.1371
3 11.751 -0.00194514 -19.2271
3 -11.4553 3.89223 -19.127
2 -7.8159 3.99627 -19.2692
3 -3.95147 3.90869 -19.193
2 -0.0211663 3.96031 -19.4569
3 3.91425 3.89545 -19.2675
1 7.84472 3.91483 -19.2202
3 11.7014 3.80783 -19.0303
3 -11.4032 7.80966 -18.7899
3 -7.6508 7.71124 -19.1273
3 -3.90115 7.83125 -19.2472
3 0.104628 7.83442 -19.2728
1 3.91904 7.70633 -19.3366
3 7.69577 7.51119 -19.1441
3 11.6015 7.54592 -18.8864
3 -7.73405 11.5433 -18.8903
1 -3.92498 11.6211 -19.112
3 -0.205477 11.6017 -19.3232
3 3.77197 11.4838 -19.0609
3 7.82094 11.4797 -18.9858
3 -7.59686 -15.2176 -15.2404
3 -3.9173 -15.5076 -15.4749
2 -0.00631091 -15.4453 -15.3995
2 3.9699 -15.7546 -15.5428
2 8.07637 -15.6043 -15.3418
3 -11.47 -11.5292 -15.2411
2 -7.62129 -11.503 -15.445
3 -3.83373 -11.6386 -15.6181
2 0.191172 -11.4946 -15.6174
3 3.91783 -11.7306 -15.5434
3 7.89098 -11.6591 -15.4185
1 11.7552 -11.7256 -15.3578
3 -15.2932 -7.69744 -15.4141
1 -11.5406 -7.70573 -15.5385
2 -7.73811 -7.77244 -15.5462
1 -3.89502 -7.73989 -15.6533
2 0.0562596 -7.68268 -15.5868
1 3.79965 -7.68059 -15.7024
2 7.82069 -7.77459 -15.5623
1 11.7352 -7.79763 -15.367
3 15.2879 -7.75451 -15.1541
2 -15.4313 -3.89804 -15.5231
1 -11.6507 -3.70651 -15.653
2 -7.66511 -3.79398 -15.8291
1 -3.79698 -3.94392 -15.6793
2 -0.0833639 -3.86099 -15.7492
1 3.94997 -3.97598 -15.5745
3 7.76451 -3.8551 -15.5766
2 11.7214 -3.92906 -15.5151
2 15.4974 -3.88094 -15.4153
3 -15.3432 0.081592 -15.5161
2 -11.6006 0.132269 -15.6891
1 -7.74338 0.0643034 -15.6119
2 -4.03756 -0.0554159 -15.6078
2 -0.014059 -0.0896852 -15.8044
2 3.85439 -0.025684 -15.7304
2 7.89679 0.0173736 -15.6638
1 11.6297 0.0643323 -15.4793
1 15.5432 -0.000846829 -15.4563
1 -15.5281 3.94585 -15.4546
1 -11.5772 3.9602 -15.4847
1 -7.82381 3.90295 -15.4871
1 -3.9426 3.82235 -15.5601
1 -0.106419 3.887 -15.6104
1 3.86484 3.829 -15.573
2 7.76619 3.98311 -15.5142
3 11.639 3.81949 -15.3182
3 15.4352 3.85854 -15.3538
3 -15.256 7.85255 -15.2933
1 -11.3793 7.78807 -15.3406
2 -7.54875 7.75807 -15.4197
1 -3.83049 7.85319 -15.5069
2 0.0586071 7.75352 -15.4672
1 3.80476 7.77678 -15.518
2 7.70698 7.61367 -15.3735
3 11.5286 7.54914 -15.233
3 15.2777 7.51101 -15.311
3 -11.2858 11.5051 -15.3701
2 -7.75 11.6084 -15.3692
2 -3.78906 11.7518 -15.3947
1 -0.0254954 11.6633 -15.4582
2 3.82756 11.6735 -15.5541
3 7.77072 11.4844 -15.2578
3 11.6657 11.4499 -15.3345
3 -7.63924 15.2746 -15.3147
3 -3.79217 15.407 -15.3371
2 -0.15056 15.4592 -15.3951
3 3.9227 15.376 -15.5249
2 7.67898 15.2843 -15.3907
3 -7.54752 -18.8459 -11.6687
1 -3.96595 -19.0683 -11.7101
3 -0.01903 -19.147 -11.5947
2 4.09756 -19.0584 -11.6377
3 7.8775 -18.9404 -11.3571
3 -11.5778 -15.1061 -11.6147
2 -7.65164 -15.269 -11.659
2 -3.74975 -15.3761 -11.6015
1 -0.0516657 -15.3935 -11.6665
1 3.87448 -15.4412 -11.7243
3 7.74416 -15.3322 -11.4507
1 11.6598 -15.3768 -11.4184
2 -15.3176 -11.5099 -11.7216
1 -11.6987 -11.6601 -11.7594
2 -7.63765 -11.6081 -11.6796
1 -3.81351 -11.5044 -11.6994
2 -0.0210823 -11.5432 -11.6361
1 3.91091 -11.5948 -11.7132
2 7.85997 -11.4864 -11.7068
2 11.5232 -11.6881 -11.6362
2 15.474 -11.6385 -11.6509
3 -18.9434 -7.7067 -11.4962
2 -15.2563 -7.66296 -11.6069
2 -11.5768 -7.69129 -11.6793
2 -7.71733 -7.6227 -11.6802
2 -3.88521 -7.72156 -11.7123
2 -0.0729393 -7.70587 -11.7859
2 3.75204 -7.81473 -11.8483
2 7.64687 -7.8146 -11.6438
3 11.579 -7.78643 -11.6155
3 15.38 -7.80166 -11.5981
3 19.0554 -7.87569 -11.525
2 -19.1518 -3.97735 -11.5077
2 -15.4114 -3.81584 -11.7494
2 -11.5594 -3.8135 -11.7192
2 -7.80391 -3.85566 -11.7732
2 -3.9042 -3.89328 -11.9685
2 0.0230491 -3.84386 -11.7455
2 3.82076 -3.8419 -11.8092
1 7.74366 -3.94707 -11.5397
1 11.5703 -3.90545 -11.7038
1 15.6358 -3.86973 -11.7278
3 19.2381 -3.96937 -11.5322
2 -19.1648 -0.0228566 -11.5664
1 -15.4951 0.0445302 -11.7277
2 -11.5262 -0.0493037 -11.6378
3 -7.85553 0.0215705 -11.665
2 -3.93559 -0.138268 -11.8169
1 -0.0258163 -0.142786 -11.6978
2 3.75621 -0.136779 -11.7731
2 7.60446 -0.115739 -11.7846
2 11.6224 0.0274028 -11.6463
1 15.5855 -0.171634 -11.7631
3 19.2718 -0.0678317 -11.6294
1 -19.0647 4.04274 -11.5119
1 -15.218 3.84738 -11.5529
3 -11.6339 3.87129 -11.6953
2 -7.87104 3.72548 -11.7172
2 -3.96298 3.77331 -11.6361
1 -0.0646917 3.75839 -11.743
2 3.66744 3.73826 -11.5502
1 7.58031 3.80523 -11.5551
1 11.543 3.80669 -11.563
2 15.5096 3.75307 -11.5551
1 19.1441 3.9043 -11.6262
3 -19.038 7.86321 -11.2316
1 -15.2705 7.75052 -11.4942
2 -11.4484 7.71773 -11.5373
2 -7.67993 7.66344 -11.5156
1 -3.88139 7.68042 -11.6979
2 -0.052338 7.6353 -11.5727
1 3.81047 7.76284 -11.7376
1 7.74305 7.67458 -11.6201
2 11.647 7.83974 -11.6283
1 15.4779 7.70024 -11.5809
2 18.9615 7.73761 -11.5635
2 -15.4163 11.6437 -11.532
2 -11.5177 11.6077 -11.5415
1 -7.69308 11.5768 -11.6929
1 -3.78684 11.4596 -11.6382
1 0.122699 11.5648 -11.6238
1 3.91784 11.4393 -11.6269
2 7.69775 11.4423 -11.5678
2 11.5677 11.474 -11.6231
2 15.5728 11.7435 -11.7278
3 -11.5628 15.3747 -11.6345
3 -7.56139 15.3623 -11.6347
3 -3.82056 15.4484 -11.614
2 0.00198193 15.3219 -11.6727
3 3.81705 15.3362 -11.6019
3 7.69887 15.291 -11.6892
3 11.4591 15.2169 -11.604
3 -7.76466 19.0736 -11.4856
3 -3.72314 19.0942 -11.6719
3 0.131483 18.9721 -11.7053
3 3.95983 19.0828 -11.6512
2 7.75284 18.9716 -11.433
3 0.0688703 -22.6659 -7.87753
2 -11.5668 -19.061 -8.00859
2 -7.65643 -19.288 -7.66625
1 -3.92555 -19.2615 -7.72067
2 -0.196388 -19.3594 -7.70999
1 3.92315 -19.2461 -7.73626
1 7.80752 -18.9552 -7.63826
3 11.3716 -18.8451 -7.52807
3 -15.3473 -15.4088 -7.69907
1 -11.7302 -15.1926 -8.01804
1 -7.58544 -15.5467 -7.77066
1 -3.95222 -15.4373 -7.77266
1 -0.081241 -15.472 -7.75636
2 3.83083 -15.4314 -7.87387
2 7.69816 -15.4067 -7.7098
2 11.6309 -15.4039 -7.63928
1 15.3318 -15.3741 -7.59989
3 -18.9642 -11.5573 -7.80496
1 -15.3931 -11.5782 -7.90488
2 -11.5487 -11.6429 -7.84016
2 -7.69296 -11.6714 -7.81658
2 -3.99049 -11.5944 -7.774
2 -0.0289013 -11.6336 -7.71017
2 3.87825 -11.5687 -7.80858
2 7.75948 -11.5394 -7.67677
3 11.6033 -11.6175 -7.68247
2 15.4133 -11.7252 -7.639
3 19.133 -11.4974 -7.94883
3 -19.1964 -7.80518 -7.82032
3 -15.511 -7.68834 -7.76301
1 -11.5349 -7.70368 -7.81638
1 -7.74868 -7.6434 -7.78592
2 -3.939 -7.72223 -7.64717
2 0.0107621 -7.72995 -7.88582
1 3.85342 -7.73676 -7.84938
2 7.64146 -7.78902 -7.87861
1 11.5764 -7.837 -7.81543
3 15.4745 -7.7645 -7.77337
3 19.2625 -7.76815 -7.71356
2 -19.302 -4.01473 -7.89875
2 -15.3582 -3.96581 -7.77367
1 -11.5757 -3.96138 -7.76934
2 -7.68248 -3.90673 -7.75999
2 -3.87206 -3.99913 -7.81764
1 -0.0658036 -3.88851 -7.799
2 3.75032 -3.96857 -7.74788
2 7.80005 -3.92719 -7.83209
2 11.5202 -3.82041 -7.75296
2 15.6416 -3.96811 -7.82735
3 19.305 -3.9962 -7.87363
3 -22.6325 0.0912172 -7.75388
2 -19.2947 0.0521122 -7.92897
1 -15.4695 -0.0842151 -7.79628
2 -11.6177 -0.0412881 -7.70902
1 -7.82785 0.0379871 -7.67813
2 -4.00359 -0.0067783 -7.72318
1 -0.117329 -0.144791 -7.80078
2 3.71255 -0.155254 -7.78026
1 7.6696 -0.0212674 -7.92313
1 11.5375 -0.0803591 -7.91419
2 15.5255 -0.0309036 -7.83708
2 19.32 -0.218526 -7.83717
3 22.8931 -0.155719 -7.63855
2 -19.1579 3.88903 -7.6207
3 -15.3715 3.87467 -7.6666
2 -11.5742 3.86019 -7.55111
2 -7.7945 3.75094 -7.6909
1 -3.89127 3.77192 -7.68263
1 -0.0288506 3.78343 -7.71724
2 3.81689 3.7729 -7.85744
1 7.69724 3.78577 -7.78394
2 11.6705 3.87652 -7.6911
2 15.4736 3.72927 -7.8029
3 19.2979 3.8879 -7.82949
3 -19.1234 7.66701 -7.48253
2 -15.3394 7.78005 -7.71241
2 -11.5216 7.60998 -7.72086
2 -7.77514 7.62642 -7.68995
1 -3.90614 7.67324 -7.77596
1 0.0151728 7.62734 -7.81357
1 3.89463 7.6561 -7.64826
2 7.80842 7.60861 -7.77703
2 11.601 7.48836 -7.77294
2 15.477 7.67019 -7.78114
3 19.3102 7.80437 -7.701
3 -18.8864 11.4679 -7.70694
3 -15.2265 11.5824 -7.73249
2 -11.6541 11.6861 -7.62123
2 -7.67572 11.6882 -7.70047
2 -3.81509 11.4944 -7.65222
1 -0.00301031 11.5454 -7.73558
2 3.83407 11.5346 -7.6472
1 7.76311 11.5976 -7.68397
1 11.6282 11.4792 -7.78476
1 15.4946 11.4515 -7.80889
3 18.9384 11.513 -7.92121
3 -15.152 15.5816 -7.57122
2 -11.3927 15.4023 -7.78062
1 -7.55093 15.5035 -7.76512
1 -3.75692 15.57 -7.82997
3 0.000317445 15.4157 -7.76194
1 3.87891 15.3052 -7.6962
2 7.6879 15.3872 -7.70036
2 11.3449 15.4977 -7.84005
3 15.2196 15.3004 -7.67563
3 -11.3286 19.1844 -7.78772
1 -7.58569 19.2834 -7.68575
2 -3.75988 19.1555 -7.65588
3 -0.00110472 19.0451 -7.97384
3 3.94972 19.1532 -7.90112
3 7.69002 19.1372 -7.70866
2 11.5043 19.1177 -7.74636
3 0.0189907 22.6728 -7.78224
3 -3.94234 -22.8562 -3.82148
2 0.0551699 -22.958 -3.7989
3 4.09105 -22.6665 -3.946
3 -11.767 -19.2904 -3.95878
1 -7.76312 -19.3199 -3.81016
1 -3.99154 -19.4302 -3.75011
2 -0.0360808 -19.3591 -3.88877
2 3.93966 -19.1779 -3.80137
3 7.67779 -18.9931 -3.78638
3 11.6691 -18.9135 -3.7409
3 -15.3525 -15.4602 -4.04952
2 -11.6926 -15.541 -4.03799
1 -7.84826 -15.5053 -3.78374
2 -3.89338 -15.5772 -3.8992
2 -0.191988 -15.5446 -3.94241
1 3.78334 -15.4698 -3.85744
2 7.72369 -15.3462 -3.93572
3 11.4999 -15.2258 -3.75693
1 15.4459 -15.467 -3.8987
3 -19.1875 -11.6353 -3.99201
1 -15.5654 -11.6997 -4.01261
1 -11.7072 -11.6175 -3.98519
1 -7.88858 -11.6872 -3.93846
2 -3.88723 -11.6531 -3.86795
1 -0.141901 -11.672 -3.81969
1 3.75507 -11.6197 -3.81977
2 7.73255 -11.5921 -3.77684
1 11.6798 -11.5701 -3.9183
1 15.5222 -11.6211 -3.84228
3 19.0291 -11.4921 -3.89581
1 -19.2959 -7.77541 -3.82916
1 -15.4695 -7.67586 -3.85813
1 -11.5725 -7.75245 -3.98765
1 -7.84272 -7.82369 -3.90704
1 -3.84121 -7.87897 -3.81515
2 0.106655 -7.82281 -3.96565
1 3.81953 -7.92263 -3.86474
1 7.70505 -7.58957 -3.84167
2 11.5832 -7.76397 -3.92038
2 15.3828 -7.66847 -3.83913
3 19.1317 -7.8004 -3.94945
3 -22.7433 -3.90167 -3.96028
2 -19.2599 -4.03846 -3.7206
2 -15.4603 -4.00817 -3.85524
1 -11.6866 -3.90007 -3.9125
2 -7.78868 -3.95356 -3.90213
1 -3.82667 -3.91579 -3.79562
2 -0.102035 -3.9364 -3.98923
2 3.75341 -3.86844 -3.82242
2 7.70611 -3.8963 -3.96322
1 11.6618 -3.87912 -4.03467
2 15.5784 -3.84642 -3.89896
2 19.3517 -3.91869 -3.88103
3 22.9035 -4.03344 -4.2586
3 -22.5433 -0.0377266 -3.87927
2 -19.0755 0.0200216 -3.87554
2 -15.5254 -0.173241 -3.87515
2 -11.5846 -0.104572 -3.76084
2 -7.93283 -0.127527 -3.76602
2 -3.86415 -0.175329 -3.8136
1 -0.071132 -0.097192 -3.82729
1 3.73109 -0.0264504 -3.90041
2 7.74629 0.0159192 -3.99517
2 11.6944 -0.140077 -4.06511
2 15.56 -0.00745977 -4.07883
3 19.2931 -0.144689 -3.94995
3 22.9854 -0.223163 -3.96597
1 -22.677 3.65382 -3.78216
1 -19.1601 3.82289 -3.94217
2 -15.4989 3.829 -3.87666
2 -11.6061 3.76078 -3.80681
2 -7.71577 3.70832 -3.79971
2 -3.89498 3.78661 -3.72559
2 -0.0723948 3.71979 -3.91802
2 3.81737 3.94899 -3.82009
2 7.63026 3.74653 -3.95585
2 11.4889 3.73065 -3.85347
2 15.6498 3.84923 -4.03693
1 19.5199 3.77796 -3.92366
3 22.9665 3.75759 -3.76121
2 -18.969 7.70479 -4.00903
1 -15.3794 7.53031 -3.85395
2 -11.4776 7.58395 -3.8083
2 -7.67166 7.55835 -3.82155
1 -3.86936 7.65333 -3.81926
1 -0.005614 7.65646 -3.7738
2 3.91315 7.71315 -3.88743
1 7.66818 7.6329 -3.92058
2 11.5893 7.62433 -3.88994
2 15.5412 7.59063 -3.80168
2 19.3169 7.85723 -3.90057
1 -18.9918 11.578 -3.96232
1 -15.4336 11.6002 -3.96003
2 -11.4841 11.5825 -3.8682
2 -7.69708 11.7463 -3.85405
1 -3.89968 11.5436 -3.89983
1 -0.015091 11.4586 -3.95155
2 3.82222 11.4877 -3.97491
2 7.74265 11.6021 -3.90499
1 11.6542 11.5939 -3.85438
1 15.5971 11.681 -3.79392
2 19.1453 11.6837 -3.91462
3 -15.2547 15.479 -3.80622
2 -11.5232 15.5641 -3.81428
2 -7.79634 15.5335 -3.92012
1 -3.82513 15.5381 -3.84945
1 0.0710048 15.4235 -3.92486
2 3.8952 15.4504 -3.90509
1 7.68812 15.4259 -3.87881
1 11.431 15.3819 -3.93695
1 15.8795 15.944 -3.84001
3 -11.5363 19.2758 -3.73338
2 -7.6782 19.1864 -4.0244
1 -3.75966 19.3023 -3.92396
1 0.0478112 19.289 -3.87445
2 3.87388 19.2351 -3.87969
3 7.8105 19.1876 -3.86492
3 11.5489 19.0996 -3.78263
3 -3.77277 22.7544 -4.05252
3 0.00854318 22.6679 -3.91639
3 3.902 22.5153 -4.15504
3 -7.76136 -22.9266 0.207806
2 -4.04573 -22.9676 0.411784
3 -0.0258835 -22.9064 0.326182
2 3.90625 -22.7975 -0.0345137
3 7.38372 -22.8649 -0.118409
2 -11.7579 -19.4061 0.0734851
3 -7.95926 -19.164 0.0813306
2 -4.12464 -19.1622 0.249712
2 -0.112508 -19.3067 0.16311
1 3.7783 -19.1917 0.0617676
3 7.7296 -19.1391 0.0500346
3 11.4322 -18.9219 0.00541658
2 -15.3808 -15.3211 0.0675959
2 -11.7121 -15.4769 -0.0240381
3 -7.93414 -15.3899 -0.0118209
2 -4.10227 -15.5446 0.0634141
2 -0.0447995 -15.5098 -0.0643091
2 3.76609 -15.4403 0.0171422
2 7.82574 -15.4793 0.0490097
2 11.6082 -15.3779 -0.0157567
3 15.2385 -15.306 0.00753931
3 -19.264 -11.6038 0.0679104
2 -15.6703 -11.5888 0.0142734
2 -11.7865 -11.6155 -0.0810022
2 -7.81192 -11.627 -0.0102083
2 -3.81991 -11.7501 0.12205
2 0.0435395 -11.6303 0.0679279
1 3.79371 -11.6605 0.0463784
2 7.71541 -11.6682 0.10082
1 11.7012 -11.4828 0.116657
1 15.4441 -11.497 0.156093
3 19.1317 -11.4777 -0.0615011
3 -22.7045 -7.75498 0.0665661
2 -19.2829 -7.80314 0.106926
2 -15.5409 -7.71042 0.0622575
2 -11.6978 -7.79388 -0.0499339
2 -7.80272 -7.85795 -0.0648466
1 -3.78312 -7.92869 0.0879791
2 -0.022358 -7.69643 0.0495113
1 3.74887 -7.75361 -0.0508704
2 7.58624 -7.65248 -0.0864367
2 11.6757 -7.60556 -0.0772902
2 15.5437 -7.68007 -0.0795231
3 19.4727 -7.78577 0.00376168
3 22.4737 -7.73468 0.0374989
3 -22.8023 -3.79013 -0.0577738
2 -19.1905 -3.95866 0.0303514
1 -15.4911 -4.02227 0.00622716
1 -11.7123 -4.01197 -0.0247886
2 -7.81211 -4.08955 0.00619806
2 -3.87498 -3.90301 0.00101094
1 0.0303674 -3.92186 -0.0461541
1 3.77008 -3.97965 -0.035377
1 7.83243 -3.82414 -0.0319033
2 11.6317 -3.85929 -0.064387
1 15.6425 -3.87762 0.199106
2 19.3423 -3.7027 -0.0338681
3 22.8373 -4.00346 -0.161854
1 -22.7023 0.0233693 0.0292213
2 -19.1508 0.0376098 0.00285571
1 -15.4758 -0.0146122 0.137959
1 -11.5885 -0.159446 0.133413
2 -7.82595 -0.249407 -0.00560012
1 -3.98449 -0.120734 0.0447545
1 0.0815043 -0.0941946 0.0601707
2 3.84891 -0.0562306 0.0514338
1 7.76147 -0.160627 -0.102658
2 11.6141 -0.0463717 -0.101929
1 15.4394 -0.135516 -0.0700836
1 19.4551 -0.180857 -0.161783
3 22.905 0.00571874 -0.0962909
3 -22.7242 3.9745 0.0627517
2 -19.1237 3.59211 -0.0261951
3 -15.3306 3.86194 -0.0813111
2 -11.6281 3.85614 -0.0133614
1 -7.73575 3.91023 0.213921
2 -3.77973 3.69108 0.0186014
1 0.0819482 3.75196 0.0172201
2 3.78688 3.95832 0.00706832
2 7.68634 3.92182 -0.0366555
1 11.7154 3.81411 -0.0203915
2 15.5408 3.86498 -0.126571
1 19.3172 3.62395 0.0396874
3 22.7385 3.9049 -0.0596103
3 -22.7393 7.5652 -0.0930421
3 -18.979 7.6973 0.0144504
2 -15.3952 7.74853 -0.149514
2 -11.5587 7.74196 0.0486181
2 -7.6374 7.75945 0.128006
2 -3.86513 7.74407 0.0526939
1 -0.100156 7.62412 -0.110096
1 3.88143 7.798 -0.113206
2 7.67155 7.70981 -0.171774
2 11.7653 7.72909 -0.0856446
2 15.6789 7.72046 0.192178
2 19.2438 7.79706 0.200984
3 22.6274 7.39472 0.16818
2 -19.0272 11.6271 -0.0868783
2 -15.4625 11.6627 0.143468
2 -11.5782 11.7095 0.00498375
1 -7.69682 11.5815 0.00596778
1 -3.8222 11.6604 0.0833708
2 -0.102161 11.6321 -0.0662957
1 3.83054 11.6769 -0.0617105
2 7.69399 11.5781 -0.0598169
1 11.6263 11.5642 -0.0520094
2 15.5515 11.5303 0.0961681
1 19.1985 11.6534 0.0498054
2 -15.4004 15.3057 -0.0379293
2 -11.6913 15.4323 0.0596441
2 -7.90491 15.5096 0.0780121
2 -3.86451 15.5509 0.115244
2 -0.0611869 15.4695 0.0510619
2 3.73266 15.4214 -0.138122
1 7.67179 15.2979 -0.0990594
2 11.6375 15.2145 0.189163
1 15.2696 15.4257 0.161929
3 -11.7219 19.2694 0.176498
3 -7.8364 19.4288 0.0687387
1 -3.63817 19.3252 0.0650122
2 0.191217 19.4002 0.0214139
3 3.93409 19.2674 -0.00700312
3 7.78551 19.0263 -0.0447797
2 11.5773 19.0497 0.0700469
3 -7.5104 22.0326 0.197915
3 -3.90955 22.7625 0.104261
3 0.21213 23.0002 0.112469
3 3.95826 22.9299 -0.177692
3 7.71691 22.5805 -0.175345
3 -4.16223 -22.6699 4.16529
1 -0.0132231 -22.9991 4.01463
1 3.76044 -22.6231 3.94372
3 -11.7405 -19.1017 3.8065
2 -7.87163 -19.2229 3.90969
2 -3.9061 -19.2843 4.11278
1 -0.17293 -19.2282 3.95333
2 3.80873 -19.2036 3.9232
3 7.6608 -19.0837 3.81222
1 11.4489 -19.0962 3.86391
2 -15.4752 -15.2594 3.95687
3 -11.8645 -15.3296 3.86028
2 -7.85745 -15.4946 3.89132
1 -3.93218 -15.4498 3.95611
2 0.124247 -15.4214 4.08643
1 3.79894 -15.3408 4.0064
2 7.73689 -15.3765 3.8574
2 11.6478 -15.3255 3.88745
2 15.3452 -15.4535 3.78446
3 -19.2592 -11.6606 3.82137
3 -15.5797 -11.5779 3.92549
2 -11.7059 -11.5707 3.98695
2 -7.91042 -11.5862 3.93596
2 -3.73705 -11.5055 3.91467
2 0.0537938 -11.6827 3.988
2 3.80982 -11.6527 3.88273
1 7.76844 -11.5182 3.88833
2 11.6044 -11.5649 3.83048
3 15.4032 -11.5341 3.9885
1 19.1809 -11.7178 3.9389
2 -19.3622 -7.6565 3.804
2 -15.4928 -7.6693 3.95353
2 -11.6804 -7.69657 4.03468
2 -7.81674 -7.77616 3.83961
1 -3.96127 -7.88671 3.90464
1 0.130949 -7.58302 3.85593
2 3.825 -7.66613 3.82462
1 7.66868 -7.60215 3.85882
2 11.7092 -7.55234 3.92775
3 15.4298 -7.67777 3.87775
3 19.3181 -7.76251 3.8411
3 -22.6296 -3.85063 3.93094
1 -19.3623 -3.99277 3.88183
1 -15.4079 -3.89419 3.872
2 -11.5304 -3.89716 3.92379
1 -7.762 -3.81819 4.02531
1 -4.00535 -4.02916 4.0002
2 0.0217484 -3.85286 3.87309
2 3.882 -3.81361 3.78515
1 7.6908 -3.87426 3.84768
2 11.6517 -3.91199 3.78213
2 15.5008 -3.97918 3.8798
2 19.3484 -3.7748 3.91621
3 22.9402 -4.04769 3.88784
3 -22.6683 0.0887048 3.82316
2 -19.159 -0.0706459 3.82121
2 -15.511 0.0265502 3.89403
1 -11.6271 -0.126486 4.02777
2 -7.68668 -0.0886138 3.97553
2 -3.92802 -0.140387 3.87305
1 -0.14767 -0.115236 3.8186
2 3.81359 0.0846334 3.98209
2 7.74844 -0.0397442 3.83129
1 11.5799 0.106833 3.76746
2 15.4107 0.0528663 3.93083
2 19.33 -0.0352784 3.82691
2 22.856 -0.0611403 3.86624
3 -22.5244 3.90552 4.10513
2 -19.1758 4.01139 3.83614
2 -15.3844 3.82458 3.7552
2 -11.6183 3.93365 4.00278
2 -7.73502 3.85688 3.89949
1 -3.89214 3.65389 3.83163
2 -0.0756054 3.91857 3.85135
2 3.90285 3.85026 3.90239
2 7.63738 3.90963 3.86728
2 11.4356 3.71227 3.72749
1 15.3906 3.76356 3.83303
2 19.2742 3.86777 3.89082
3 22.812 3.87949 3.81626
2 -19.1955 7.74768 3.85813
3 -15.3652 7.80397 3.87117
2 -11.5956 7.73779 3.82678
1 -7.68401 7.70481 3.82217
2 -3.84762 7.73021 3.88072
1 -0.0322141 7.65303 3.929
2 3.80176 7.8203 3.90397
1 7.58667 7.86556 3.963
2 11.5956 7.71021 3.96865
1 15.3541 7.73242 3.90573
1 19.26 7.87112 4.0206
3 -19.1483 11.5906 3.82169
2 -15.3552 11.7029 3.77661
1 -11.6005 11.6209 3.83652
1 -7.55853 11.6505 3.95836
2 -3.71007 11.6649 3.92571
2 0.12008 11.6611 4.06416
1 3.85654 11.5936 3.91035
2 7.56717 11.6878 3.87148
2 11.6074 11.5521 3.92373
2 15.4847 11.6928 3.95402
1 19.1228 11.6192 4.04161
3 -15.4858 15.4839 4.13366
1 -11.5917 15.3526 4.00162
2 -7.68656 15.554 4.07645
2 -3.75708 15.5069 3.9185
1 0.0339773 15.5466 3.91588
2 3.7857 15.3602 3.921
2 7.68808 15.4605 3.77322
2 11.5883 15.4862 3.85489
3 15.2917 15.4151 3.94846
2 -11.7988 19.1665 4.34884
2 -7.76669 19.1895 3.99365
2 -3.91978 19.6104 3.93128
1 0.0185906 19.4676 3.84049
1 3.87484 19.2538 3.76884
1 7.75488 19.144 3.86524
3 11.5172 19.0768 3.86293
3 -4.0209 22.2171 4.09975
3 0.219621 22.7636 3.98156
2 4.06046 22.7097 3.77921
3 0.0881067 -22.7147 7.71248
1 -11.4934 -19.1604 7.80694
2 -7.68515 -19.2602 7.7514
3 -3.91063 -19.2069 7.86194
3 0.0117167 -19.004 7.79853
3 3.88976 -19.1583 7.752
2 7.73636 -18.9635 7.6901
3 11.3244 -18.878 7.83412
3 -15.4005 -15.0891 7.66845
2 -11.5982 -15.3988 7.69694
2 -7.7989 -15.3619 7.87571
2 -3.90398 -15.4854 7.82967
2 0.0656568 -15.3714 7.71179
2 3.87596 -15.4115 7.76321
2 7.85709 -15.414 7.64449
1 11.4125 -15.2695 7.76895
2 15.0659 -15.0459 7.75371
3 -19.0493 -11.4285 7.82226
2 -15.4471 -11.6219 7.67709
1 -11.6599 -11.5745 7.70865
1 -7.6811 -11.5891 7.76084
2 -3.83069 -11.618 7.66408
2 0.0451254 -11.5172 7.7608
1 3.88324 -11.4403 7.72207
2 7.69407 -11.4708 7.72408
2 11.4865 -11.4217 7.7058
2 15.3478 -11.4507 7.72767
3 18.9052 -11.5568 7.72256
1 -19.1625 -7.75972 7.72309
1 -15.3971 -7.60481 7.88283
2 -11.6491 -7.79715 8.081
1 -7.80385 -7.73191 7.78066
2 -3.84223 -7.60527 7.98562
2 -0.00482721 -7.74117 7.76631
2 3.88462 -7.6095 7.7333
1 7.74707 -7.50673 7.73099
1 11.5463 -7.54863 7.72033
1 15.3865 -7.73129 7.73858
2 19.167 -7.72709 7.78416
1 -19.2905 -3.83121 7.76597
2 -15.3978 -3.91515 7.78579
2 -11.6585 -3.80047 7.90145
1 -7.84941 -3.98714 7.82136
1 -3.95168 -3.92058 7.77309
2 0.0874905 -3.83763 7.76322
2 3.80931 -3.77402 7.67955
1 7.84675 -3.74473 7.82837
1 11.6183 -3.84122 7.71977
2 15.4516 -3.88329 7.7749
2 19.2089 -3.9171 7.72927
3 -22.5103 0.347316 7.54033
2 -19.223 0.00934856 7.74268
2 -15.4663 0.167871 7.8977
2 -11.5301 -0.0755155 7.95224
2 -7.68858 -0.0414556 7.98949
2 -3.74898 -0.0469513 7.71382
1 -0.0930804 0.00675842 7.70801
2 3.58547 0.0764512 7.95195
2 7.55272 -0.0323452 7.7306
2 11.641 -0.0228105 7.64643
1 15.591 -0.0570588 7.75457
2 19.331 0.0867055 7.66965
3 22.6688 -0.0318736 7.45517
3 -19.1389 3.94685 7.68965
2 -15.3038 3.82802 7.88695
2 -11.5769 3.83389 7.86689
2 -7.61261 3.86481 7.82239
2 -3.87451 3.83797 7.79444
2 0.00877872 3.87942 7.90223
2 3.65897 3.81794 7.89102
2 7.71848 3.81869 7.81306
2 11.4312 3.77813 7.68221
2 15.4734 3.92982 7.61434
1 19.2888 3.70661 7.5722
1 -18.98 7.79902 7.67916
1 -15.3226 7.70763 7.73741
2 -11.5957 7.79265 7.69055
2 -7.5879 7.79268 7.8148
1 -3.85313 7.67732 7.67821
1 -0.0494505 7.81314 7.76689
2 3.75167 7.82975 7.80198
2 7.72597 7.67916 7.6394
1 11.5293 7.67332 7.68089
3 15.3114 7.67914 7.74545
2 19.2294 7.79941 7.7165
3 -18.906 11.3998 7.69276
1 -15.3599 11.5586 7.78575
2 -11.5365 11.7252 7.92134
2 -7.64727 11.6147 7.74483
1 -3.90546 11.6651 7.79652
2 -0.0432545 11.6712 7.73808
1 3.66774 11.7265 7.84762
1 7.77314 11.6238 7.77066
2 11.5557 11.6046 7.7895
2 15.3972 11.5306 7.66183
3 18.9736 11.3912 7.78557
1 -15.4564 15.189 8.07844
1 -11.682 15.251 7.94199
1 -7.67178 15.4918 7.87169
1 -3.78233 15.5303 7.78723
2 -0.0247365 15.5558 7.79497
2 3.77147 15.6188 7.82813
1 7.76931 15.396 7.93738
2 11.616 15.5107 7.8122
2 15.2444 15.232 7.68756
3 -11.4016 18.8403 7.86782
3 -7.81089 19.0181 7.86796
1 -4.01942 19.1979 8.18092
2 -0.0856654 19.5447 7.91171
1 3.7849 19.2954 7.84493
3 7.82088 19.1236 7.71953
3 11.3936 18.8827 7.75944
3 -0.242778 22.1353 8.00531
3 -7.71866 -19.0631 11.5323
3 -3.76823 -18.9198 11.5406
3 0.0175574 -19.1318 11.6103
3 3.71132 -18.978 11.5381
3 7.87129 -18.9687 11.428
3 -11.6109 -15.3154 11.6366
3 -7.6564 -15.2921 11.6125
1 -3.94538 -15.4765 11.6282
1 -0.0228263 -15.4336 11.5718
1 3.90273 -15.3577 11.5455
2 7.88587 -15.2937 11.51
3 11.3933 -15.3605 11.515
2 -15.688 -11.6994 11.9852
2 -11.6433 -11.6634 11.8783
1 -7.78725 -11.5463 11.6273
2 -3.90444 -11.6184 11.7133
2 0.00665922 -11.5947 11.7136
2 3.86517 -11.5217 11.5787
2 7.70736 -11.5016 11.6719
2 11.6093 -11.4145 11.5014
3 15.3523 -11.216 11.509
3 -19.1432 -7.67396 11.385
3 -15.4523 -7.77598 11.7184
2 -11.5533 -7.75758 11.8084
2 -7.78312 -7.68328 11.8842
2 -3.92258 -7.73462 11.6082
2 0.0436118 -7.6946 11.646
2 3.90763 -7.73371 11.8977
1 7.76672 -7.65031 11.6771
1 11.5586 -7.54748 11.7393
2 15.4091 -7.7512 11.5054
3 19.033 -7.71423 11.498
1 -19.2153 -3.88003 11.5675
3 -15.5199 -3.84768 11.6447
1 -11.6188 -3.82605 11.6709
2 -7.58667 -3.87393 11.7764
2 -3.8665 -3.8917 11.7184
1 -0.0905909 -3.87617 11.6813
2 3.86322 -3.80517 11.6477
1 7.75546 -3.68127 11.6235
2 11.6195 -3.86757 11.6799
2 15.4913 -3.88351 11.6233
3 19.1487 -3.71114 11.6195
3 -19.2018 -0.0200698 11.6111
2 -15.4043 -0.0745209 11.8052
2 -11.7114 -0.0789203 11.7109
2 -7.81729 0.0288088 11.6906
1 -3.87325 -0.0859508 11.8418
2 -0.119261 0.0468665 11.6909
2 3.77423 -0.064626 11.6094
2 7.69593 0.0926255 11.7089
2 11.458 0.057093 11.6658
1 15.3347 0.0565587 11.4779
2 19.2302 0.241497 11.5328
2 -19.2695 4.06208 11.5562
2 -15.4525 3.87672 11.7355
2 -11.5773 3.99192 11.73
2 -7.73011 3.86194 11.6934
2 -3.99858 3.79986 11.8214
1 -0.107077 3.86228 11.8176
2 3.65201 3.83474 11.7899
2 7.61936 3.91768 11.6322
2 11.3993 3.82637 11.6009
1 15.4663 3.91776 11.6554
2 19.0956 3.81679 11.4967
3 -18.8299 7.63524 11.4751
2 -15.3563 7.65165 11.5712
2 -11.4747 7.67002 11.7065
2 -7.7905 7.77517 11.6788
2 -4.04258 7.84738 11.7726
2 -0.152983 7.73224 11.696
2 3.76333 7.72265 11.6264
1 7.61909 7.69193 11.5492
1 11.3966 7.71753 11.585
1 15.3245 7.5811 11.3828
1 18.9715 7.69534 11.4629
3 -15.2871 11.3715 11.5348
1 -11.5707 11.4876 11.7014
1 -7.80527 11.4797 11.6817
2 -3.98099 11.5541 11.6976
1 -0.208377 11.5498 11.725
1 3.72958 11.7053 11.6693
2 7.64932 11.5421 11.6083
1 11.4731 11.5798 11.6389
3 15.2922 11.6998 11.5617
3 -11.6763 15.1434 11.6774
1 -7.727 15.199 11.6348
1 -3.92733 15.4245 11.7971
2 -0.0956674 15.4193 11.7134
2 3.69036 15.5136 11.6237
1 7.76268 15.4748 11.7629
3 11.4564 15.3023 11.6533
3 -7.82822 18.764 11.7319
3 -3.92348 18.8982 11.9242
3 -0.0131146 19.199 11.7313
3 3.91349 19.1019 11.9259
3 7.79678 18.9105 11.5599
3 -7.77625 -15.3672 15.3558
3 -3.93283 -15.3525 15.4316
3 -0.0267448 -15.4122 15.3204
2 4.03039 -15.2386 15.3115
3 7.79512 -15.3052 15.2748
2 -11.6958 -11.6592 15.5171
3 -7.67624 -11.5083 15.465
2 -3.91805 -11.7159 15.5412
2 -0.0223097 -11.6494 15.5147
2 3.82972 -11.7306 15.6474
3 7.64183 -11.4389 15.3614
3 11.6768 -11.4252 15.223
2 -15.2644 -7.597 15.4779
1 -11.6793 -7.59293 15.4253
2 -7.84734 -7.77654 15.5294
1 -3.75151 -7.76212 15.5369
1 -0.0231414 -7.64882 15.4816
2 3.99071 -7.66883 15.6829
1 7.75613 -7.60054 15.5452
3 11.5147 -7.5925 15.3543
2 15.3575 -7.567 15.1492
3 -15.4463 -3.88642 15.4879
2 -11.6536 -3.88284 15.4212
1 -7.73503 -3.95843 15.6176
3 -3.95033 -3.85779 15.6743
1 0.0898552 -3.78387 15.4621
2 4.02894 -3.95866 15.4684
2 7.79118 -3.80658 15.6187
3 11.7058 -3.77854 15.4466
3 15.4239 -3.97865 15.3762
1 -15.272 -0.00191169 15.3525
2 -11.7328 0.006705 15.5506
2 -7.70256 0.0247236 15.6943
1 -3.81007 0.0812879 15.6818
2 -0.0803158 0.03627 15.629
1 3.86786 0.0551661 15.5252
2 7.73011 0.0101241 15.5084
1 11.4448 0.0804423 15.3434
3 15.3308 0.0350483 15.2513
3 -15.498 3.90989 15.4701
2 -11.6643 3.91599 15.6105
2 -7.77843 3.92177 15.7475
1 -3.88977 3.94474 15.7122
2 -0.149239 3.90808 15.501
1 3.62893 3.9884 15.545
2 7.58213 3.91859 15.387
3 11.5085 3.83638 15.3301
2 15.4174 3.78292 15.3877
2 -15.3097 7.6034 15.4756
2 -11.7617 7.76646 15.5672
3 -7.65844 7.64741 15.5837
2 -3.78695 7.85535 15.4925
2 -0.123349 7.79978 15.6145
2 3.73234 7.82579 15.4751
2 7.59933 7.71424 15.4868
3 11.384 7.75389 15.321
3 15.1492 7.74533 15.2985
3 -11.7385 11.5648 15.4868
2 -7.71425 11.4188 15.649
2 -3.81088 11.5719 15.4712
2 -0.0836298 11.7125 15.5999
2 3.76285 11.6515 15.4195
3 7.55929 11.599 15.3814
2 11.5709 11.6307 15.402
3 -7.86972 15.1268 15.4802
3 -3.98889 15.3182 15.611
3 -0.159446 15.1851 15.4902
2 3.77615 15.5711 15.6177
2 7.88371 15.3094 15.5811
3 -7.78776 -11.5404 19.148
3 -3.93717 -11.7882 19.1634
2 -0.0166989 -11.6726 19.2487
1 4.191 -11.6386 19.1222
3 7.80446 -11.3574 19.0303
3 -11.6613 -7.67743 18.9725
3 -7.97019 -7.72067 19.0797
1 -3.98817 -7.89538 19.3676
2 -0.0416065 -7.77438 19.3098
1 3.89737 -7.70827 19.2661
3 7.7821 -7.68151 19.2496
3 11.4867 -7.88762 19.0378
3 -11.6581 -3.93889 19.1906
1 -7.85328 -3.98542 19.3133
2 -3.85479 -3.89838 19.3967
2 -0.0887792 -3.68587 19.3369
2 4.10142 -3.92828 19.3823
2 7.83347 -3.76666 19.3144
2 11.6886 -3.8801 19.3061
3 -11.6558 0.0339902 19.1756
2 -7.87388 -0.161477 19.3668
1 -3.86279 0.0683191 19.6191
2 -0.143466 0.231567 19.6673
1 3.9405 -0.0165353 19.2114
3 7.81866 -0.0291651 19.2162
1 11.6086 0.0173191 19.0974
3 -11.57 3.81711 19.203
3 -7.80544 3.94867 19.4528
2 -4.02361 4.03373 19.7854
1 -0.111827 3.97865 19.537
3 3.73408 3.82334 19.4138
3 7.74084 3.87426 19.1086
3 11.5497 3.8821 19.0143
3 -11.5614 7.67893 19.1557
1 -7.87778 7.72959 19.4816
3 -4.11536 7.86177 19.4914
2 0.0491318 8.03755 19.4011
1 3.9808 7.88295 19.2418
1 7.71174 7.76691 18.855
3 11.2878 7.72795 18.8375
3 -7.81811 11.6358 19.1572
1 -4.19871 11.9592 19.617
1 0.0168675 11.6894 19.3755
3 3.91852 11.688 19.3298
3 7.94098 11.5473 19.0374
3 0.0945758 -7.61009 22.7048
3 -3.94276 -4.11716 22.8181
3 0.0951762 -3.95666 22.9129
3 3.98086 -3.87832 22.6897
3 -7.88979 -0.226907 22.6585
3 -4.17377 -0.115312 22.8709
3 0.28703 -0.180514 22.9242
3 3.96068 0.0181419 22.844
2 7.6903 0.0533348 22.9171
3 -4.06425 4.56845 22.8802
2 -0.00943995 4.40694 23.1126
2 4.04111 3.97462 22.8768
1 0.0977531 7.81392 22.9021
3 -6.13817 -5.72702 -22.7464
3 -1.91481 -5.48791 -22.9509
3 2.1241 -5.84933 -22.2974
3 6.09189 -5.97382 -22.406
1 -5.71403 -1.78629 -22.9705
3 -2.03322 -1.56724 -23.1221
3 1.73048 -1.60312 -23.1083
3 6.17147 -1.72385 -22.7583
2 -5.88015 2.03123 -22.7585
3 -2.09812 2.14922 -22.7713
2 1.78694 2.07166 -23.1101
2 6.16977 2.14521 -22.9902
3 -5.86577 5.81067 -22.7135
3 -1.89162 6.00838 -22.7325
3 1.99075 6.06683 -22.7674
3 5.96313 6.00337 -22.7915
3 -5.97432 -13.5196 -19.1119
3 -2.00062 -13.2823 -19.1795
3 2.09877 -13.6823 -19.1679
3 6.09322 -13.6397 -18.9807
3 -9.65695 -9.59687 -19.0971
2 -5.76227 -9.80123 -19.4263
2 -1.84878 -9.42644 -19.4658
3 1.9037 -9.62401 -19.2668
2 5.98469 -9.95099 -19.2738
2 9.79725 -9.5605 -18.8722
3 -13.0253 -5.89473 -19.037
2 -9.72671 -5.81395 -19.4041
1 -5.99484 -5.8568 -19.5585
2 -1.96034 -5.64634 -19.6313
2 2.10752 -5.65283 -19.6952
1 6.0723 -5.82469 -19.4174