LAMMPS DATA FOR MEAM SIMULATION

    971   atoms
      3   atom types

  -24.03   24.03   xlo xhi
  -24.03   24.03   ylo yhi
  -24.03   24.03   zlo zhi

 Atoms

     1   1     0.00000    -0.00000    -0.00000
     2   1     1.39000     2.24907    -0.00000
     3   1    -1.39000     2.24907    -0.00000
     4   1     1.39000    -2.24907    -0.00000
     5   1    -1.39000    -2.24907    -0.00000
     6   1     0.00000     1.39000     2.24907
     7   1     0.00000    -1.39000     2.24907
     8   1     0.00000     1.39000    -2.24907
     9   1     0.00000    -1.39000    -2.24907
    10   1     2.24907    -0.00000     1.39000
    11   1    -2.24907    -0.00000     1.39000
    12   1     2.24907    -0.00000    -1.39000
    13   1    -2.24907    -0.00000    -1.39000
    14   1     2.78000     4.49813    -0.00000
    15   1    -2.78000     4.49813    -0.00000
    16   1     2.78000    -4.49813    -0.00000
    17   1    -2.78000    -4.49813    -0.00000
    18   1     0.00000     2.78000     4.49813
    19   1     0.00000    -2.78000     4.49813
    20   1     0.00000     2.78000    -4.49813
    21   1     0.00000    -2.78000    -4.49813
    22   1     4.49813    -0.00000     2.78000
    23   1    -4.49813    -0.00000     2.78000
    24   1     4.49813    -0.00000    -2.78000
    25   1    -4.49813    -0.00000    -2.78000
    26   1     0.00000     4.49813    -0.00000
    27   1     1.39000     3.63907     2.24907
    28   1     1.39000     3.63907    -2.24907
    29   1     3.63907     2.24907     1.39000
    30   1     3.63907     2.24907    -1.39000
    31   1    -1.39000     3.63907     2.24907
    32   1    -1.39000     3.63907    -2.24907
    33   1    -3.63907     2.24907     1.39000
    34   1    -3.63907     2.24907    -1.39000
    35   1     0.00000    -4.49813    -0.00000
    36   1     1.39000    -3.63907     2.24907
    37   1     1.39000    -3.63907    -2.24907
    38   1     3.63907    -2.24907     1.39000
    39   1     3.63907    -2.24907    -1.39000
    40   1    -1.39000    -3.63907     2.24907
    41   1    -1.39000    -3.63907    -2.24907
    42   1    -3.63907    -2.24907     1.39000
    43   1    -3.63907    -2.24907    -1.39000
    44   1     0.00000    -0.00000     4.49813
    45   1     2.24907     1.39000     3.63907
    46   1    -2.24907     1.39000     3.63907
    47   1     2.24907    -1.39000     3.63907
    48   1    -2.24907    -1.39000     3.63907
    49   1     0.00000    -0.00000    -4.49813
    50   1     2.24907     1.39000    -3.63907
    51   1    -2.24907     1.39000    -3.63907
    52   1     2.24907    -1.39000    -3.63907
    53   1    -2.24907    -1.39000    -3.63907
    54   1     4.49813    -0.00000    -0.00000
    55   1    -4.49813    -0.00000    -0.00000
    56   1     4.17000     6.74720    -0.00000
    57   1    -4.17000     6.74720    -0.00000
    58   1     4.17000    -6.74720    -0.00000
    59   1    -4.17000    -6.74720    -0.00000
    60   1     0.00000     4.17000     6.74720
    61   1     0.00000    -4.17000     6.74720
    62   1     0.00000     4.17000    -6.74720
    63   1     0.00000    -4.17000    -6.74720
    64   1     6.74720    -0.00000     4.17000
    65   1    -6.74720    -0.00000     4.17000
    66   1     6.74720    -0.00000    -4.17000
    67   1    -6.74720    -0.00000    -4.17000
    68   1     1.39000     6.74720    -0.00000
    69   1     2.78000     5.88813     2.24907
    70   1     2.78000     5.88813    -2.24907
    71   1     5.02907     4.49813     1.39000
    72   1     5.02907     4.49813    -1.39000
    73   1    -2.78000     5.88813     2.24907
    74   1    -2.78000     5.88813    -2.24907
    75   1    -5.02907     4.49813     1.39000
    76   1    -5.02907     4.49813    -1.39000
    77   1     1.39000    -6.74720    -0.00000
    78   1     2.78000    -5.88813     2.24907
    79   1     2.78000    -5.88813    -2.24907
    80   1     5.02907    -4.49813     1.39000
    81   1     5.02907    -4.49813    -1.39000
    82   1    -2.78000    -5.88813     2.24907
    83   1    -2.78000    -5.88813    -2.24907
    84   1    -5.02907    -4.49813     1.39000
    85   1    -5.02907    -4.49813    -1.39000
    86   1     0.00000     1.39000     6.74720
    87   1     2.24907     2.78000     5.88813
    88   1    -2.24907     2.78000     5.88813
    89   1     2.24907    -2.78000     5.88813
    90   1    -2.24907    -2.78000     5.88813
    91   1     0.00000     1.39000    -6.74720
    92   1     2.24907     2.78000    -5.88813
    93   1    -2.24907     2.78000    -5.88813
    94   1     2.24907    -2.78000    -5.88813
    95   1    -2.24907    -2.78000    -5.88813
    96   1     6.74720    -0.00000     1.39000
    97   1    -6.74720    -0.00000     1.39000
    98   1    -1.39000     6.74720    -0.00000
    99   1     1.39000     5.02907     4.49813
   100   1     1.39000     5.02907    -4.49813
   101   1     5.88813     2.24907     2.78000
   102   1     5.88813     2.24907    -2.78000
   103   1    -1.39000     5.02907     4.49813
   104   1    -1.39000     5.02907    -4.49813
   105   1    -5.88813     2.24907     2.78000
   106   1    -5.88813     2.24907    -2.78000
   107   1    -1.39000    -6.74720    -0.00000
   108   1     1.39000    -5.02907     4.49813
   109   1     1.39000    -5.02907    -4.49813
   110   1     5.88813    -2.24907     2.78000
   111   1     5.88813    -2.24907    -2.78000
   112   1    -1.39000    -5.02907     4.49813
   113   1    -1.39000    -5.02907    -4.49813
   114   1    -5.88813    -2.24907     2.78000
   115   1    -5.88813    -2.24907    -2.78000
   116   1     0.00000    -1.39000     6.74720
   117   1     4.49813     1.39000     5.02907
   118   1    -4.49813     1.39000     5.02907
   119   1     4.49813    -1.39000     5.02907
   120   1    -4.49813    -1.39000     5.02907
   121   1     0.00000    -1.39000    -6.74720
   122   1     4.49813     1.39000    -5.02907
   123   1    -4.49813     1.39000    -5.02907
   124   1     4.49813    -1.39000    -5.02907
   125   1    -4.49813    -1.39000    -5.02907
   126   1     6.74720    -0.00000    -1.39000
   127   1    -6.74720    -0.00000    -1.39000
   128   1     0.00000     5.88813     2.24907
   129   1     0.00000     5.88813    -2.24907
   130   1     3.63907     3.63907     3.63907
   131   1     3.63907     3.63907    -3.63907
   132   1     5.88813     2.24907    -0.00000
   133   1    -3.63907     3.63907     3.63907
   134   1    -3.63907     3.63907    -3.63907
   135   1    -5.88813     2.24907    -0.00000
   136   1     0.00000    -5.88813     2.24907
   137   1     0.00000    -5.88813    -2.24907
   138   1     3.63907    -3.63907     3.63907
   139   1     3.63907    -3.63907    -3.63907
   140   1     5.88813    -2.24907    -0.00000
   141   1    -3.63907    -3.63907     3.63907
   142   1    -3.63907    -3.63907    -3.63907
   143   1    -5.88813    -2.24907    -0.00000
   144   1     2.24907    -0.00000     5.88813
   145   1    -2.24907    -0.00000     5.88813
   146   1     2.24907    -0.00000    -5.88813
   147   1    -2.24907    -0.00000    -5.88813
   148   1     5.56000     8.99627    -0.00000
   149   1    -5.56000     8.99627    -0.00000
   150   1     5.56000    -8.99627    -0.00000
   151   1    -5.56000    -8.99627    -0.00000
   152   1     0.00000     5.56000     8.99627
   153   1     0.00000    -5.56000     8.99627
   154   1     0.00000     5.56000    -8.99627
   155   1     0.00000    -5.56000    -8.99627
   156   1     8.99627    -0.00000     5.56000
   157   1    -8.99627    -0.00000     5.56000
   158   1     8.99627    -0.00000    -5.56000
   159   1    -8.99627    -0.00000    -5.56000
   160   1     2.78000     8.99627    -0.00000
   161   1     4.17000     8.13720     2.24907
   162   1     4.17000     8.13720    -2.24907
   163   1     6.41907     6.74720     1.39000
   164   1     6.41907     6.74720    -1.39000
   165   1    -4.17000     8.13720     2.24907
   166   1    -4.17000     8.13720    -2.24907
   167   1    -6.41907     6.74720     1.39000
   168   1    -6.41907     6.74720    -1.39000
   169   1     2.78000    -8.99627    -0.00000
   170   1     4.17000    -8.13720     2.24907
   171   1     4.17000    -8.13720    -2.24907
   172   1     6.41907    -6.74720     1.39000
   173   1     6.41907    -6.74720    -1.39000
   174   1    -4.17000    -8.13720     2.24907
   175   1    -4.17000    -8.13720    -2.24907
   176   1    -6.41907    -6.74720     1.39000
   177   1    -6.41907    -6.74720    -1.39000
   178   1     0.00000     2.78000     8.99627
   179   1     2.24907     4.17000     8.13720
   180   1    -2.24907     4.17000     8.13720
   181   1     2.24907    -4.17000     8.13720
   182   1    -2.24907    -4.17000     8.13720
   183   1     0.00000     2.78000    -8.99627
   184   1     2.24907     4.17000    -8.13720
   185   1    -2.24907     4.17000    -8.13720
   186   1     2.24907    -4.17000    -8.13720
   187   1    -2.24907    -4.17000    -8.13720
   188   1     8.99627    -0.00000     2.78000
   189   1    -8.99627    -0.00000     2.78000
   190   1     0.00000     8.99627    -0.00000
   191   1     2.78000     7.27813     4.49813
   192   1     2.78000     7.27813    -4.49813
   193   1     7.27813     4.49813     2.78000
   194   1     7.27813     4.49813    -2.78000
   195   1    -2.78000     7.27813     4.49813
   196   1    -2.78000     7.27813    -4.49813
   197   1    -7.27813     4.49813     2.78000
   198   1    -7.27813     4.49813    -2.78000
   199   1     0.00000    -8.99627    -0.00000
   200   1     2.78000    -7.27813     4.49813
   201   1     2.78000    -7.27813    -4.49813
   202   1     7.27813    -4.49813     2.78000
   203   1     7.27813    -4.49813    -2.78000
   204   1    -2.78000    -7.27813     4.49813
   205   1    -2.78000    -7.27813    -4.49813
   206   1    -7.27813    -4.49813     2.78000
   207   1    -7.27813    -4.49813    -2.78000
   208   1     0.00000    -0.00000     8.99627
   209   1     4.49813     2.78000     7.27813
   210   1    -4.49813     2.78000     7.27813
   211   1     4.49813    -2.78000     7.27813
   212   1    -4.49813    -2.78000     7.27813
   213   1     0.00000    -0.00000    -8.99627
   214   1     4.49813     2.78000    -7.27813
   215   1    -4.49813     2.78000    -7.27813
   216   1     4.49813    -2.78000    -7.27813
   217   1    -4.49813    -2.78000    -7.27813
   218   1     8.99627    -0.00000    -0.00000
   219   1    -8.99627    -0.00000    -0.00000
   220   1    -2.78000     8.99627    -0.00000
   221   1     1.39000     6.41907     6.74720
   222   1     1.39000     6.41907    -6.74720
   223   1     8.13720     2.24907     4.17000
   224   1     8.13720     2.24907    -4.17000
   225   1    -1.39000     6.41907     6.74720
   226   1    -1.39000     6.41907    -6.74720
   227   1    -8.13720     2.24907     4.17000
   228   1    -8.13720     2.24907    -4.17000
   229   1    -2.78000    -8.99627    -0.00000
   230   1     1.39000    -6.41907     6.74720
   231   1     1.39000    -6.41907    -6.74720
   232   1     8.13720    -2.24907     4.17000
   233   1     8.13720    -2.24907    -4.17000
   234   1    -1.39000    -6.41907     6.74720
   235   1    -1.39000    -6.41907    -6.74720
   236   1    -8.13720    -2.24907     4.17000
   237   1    -8.13720    -2.24907    -4.17000
   238   1     0.00000    -2.78000     8.99627
   239   1     6.74720     1.39000     6.41907
   240   1    -6.74720     1.39000     6.41907
   241   1     6.74720    -1.39000     6.41907
   242   1    -6.74720    -1.39000     6.41907
   243   1     0.00000    -2.78000    -8.99627
   244   1     6.74720     1.39000    -6.41907
   245   1    -6.74720     1.39000    -6.41907
   246   1     6.74720    -1.39000    -6.41907
   247   1    -6.74720    -1.39000    -6.41907
   248   1     8.99627    -0.00000    -2.78000
   249   1    -8.99627    -0.00000    -2.78000
   250   1     1.39000     8.13720     2.24907
   251   1     1.39000     8.13720    -2.24907
   252   1     5.02907     5.88813     3.63907
   253   1     5.02907     5.88813    -3.63907
   254   1     7.27813     4.49813    -0.00000
   255   1    -5.02907     5.88813     3.63907
   256   1    -5.02907     5.88813    -3.63907
   257   1    -7.27813     4.49813    -0.00000
   258   1     1.39000    -8.13720     2.24907
   259   1     1.39000    -8.13720    -2.24907
   260   1     5.02907    -5.88813     3.63907
   261   1     5.02907    -5.88813    -3.63907
   262   1     7.27813    -4.49813    -0.00000
   263   1    -5.02907    -5.88813     3.63907
   264   1    -5.02907    -5.88813    -3.63907
   265   1    -7.27813    -4.49813    -0.00000
   266   1     2.24907     1.39000     8.13720
   267   1    -2.24907     1.39000     8.13720
   268   1     2.24907     1.39000    -8.13720
   269   1    -2.24907     1.39000    -8.13720
   270   1     0.00000     7.27813     4.49813
   271   1     0.00000     7.27813    -4.49813
   272   1     5.88813     3.63907     5.02907
   273   1     5.88813     3.63907    -5.02907
   274   1     8.13720     2.24907    -1.39000
   275   1    -5.88813     3.63907     5.02907
   276   1    -5.88813     3.63907    -5.02907
   277   1    -8.13720     2.24907    -1.39000
   278   1     0.00000    -7.27813     4.49813
   279   1     0.00000    -7.27813    -4.49813
   280   1     5.88813    -3.63907     5.02907
   281   1     5.88813    -3.63907    -5.02907
   282   1     8.13720    -2.24907    -1.39000
   283   1    -5.88813    -3.63907     5.02907
   284   1    -5.88813    -3.63907    -5.02907
   285   1    -8.13720    -2.24907    -1.39000
   286   1     4.49813    -0.00000     7.27813
   287   1    -4.49813    -0.00000     7.27813
   288   1     4.49813    -0.00000    -7.27813
   289   1    -4.49813    -0.00000    -7.27813
   290   1    -1.39000     8.13720     2.24907
   291   1    -1.39000     8.13720    -2.24907
   292   1     3.63907     5.02907     5.88813
   293   1     3.63907     5.02907    -5.88813
   294   1     8.13720     2.24907     1.39000
   295   1    -3.63907     5.02907     5.88813
   296   1    -3.63907     5.02907    -5.88813
   297   1    -8.13720     2.24907     1.39000
   298   1    -1.39000    -8.13720     2.24907
   299   1    -1.39000    -8.13720    -2.24907
   300   1     3.63907    -5.02907     5.88813
   301   1     3.63907    -5.02907    -5.88813
   302   1     8.13720    -2.24907     1.39000
   303   1    -3.63907    -5.02907     5.88813
   304   1    -3.63907    -5.02907    -5.88813
   305   1    -8.13720    -2.24907     1.39000
   306   1     2.24907    -1.39000     8.13720
   307   1    -2.24907    -1.39000     8.13720
   308   1     2.24907    -1.39000    -8.13720
   309   1    -2.24907    -1.39000    -8.13720
   310   1     6.95000    11.24534    -0.00000
   311   1    -6.95000    11.24534    -0.00000
   312   1     6.95000   -11.24534    -0.00000
   313   1    -6.95000   -11.24534    -0.00000
   314   1     0.00000     6.95000    11.24534
   315   1     0.00000    -6.95000    11.24534
   316   1     0.00000     6.95000   -11.24534
   317   1     0.00000    -6.95000   -11.24534
   318   1    11.24534    -0.00000     6.95000
   319   1   -11.24534    -0.00000     6.95000
   320   1    11.24534    -0.00000    -6.95000
   321   1   -11.24534    -0.00000    -6.95000
   322   1     4.17000    11.24534    -0.00000
   323   1     5.56000    10.38627     2.24907
   324   1     5.56000    10.38627    -2.24907
   325   1     7.80907     8.99627     1.39000
   326   1     7.80907     8.99627    -1.39000
   327   1    -5.56000    10.38627     2.24907
   328   1    -5.56000    10.38627    -2.24907
   329   1    -7.80907     8.99627     1.39000
   330   1    -7.80907     8.99627    -1.39000
   331   1     4.17000   -11.24534    -0.00000
   332   1     5.56000   -10.38627     2.24907
   333   1     5.56000   -10.38627    -2.24907
   334   1     7.80907    -8.99627     1.39000
   335   1     7.80907    -8.99627    -1.39000
   336   1    -5.56000   -10.38627     2.24907
   337   1    -5.56000   -10.38627    -2.24907
   338   1    -7.80907    -8.99627     1.39000
   339   1    -7.80907    -8.99627    -1.39000
   340   1     0.00000     4.17000    11.24534
   341   1     2.24907     5.56000    10.38627
   342   1    -2.24907     5.56000    10.38627
   343   1     2.24907    -5.56000    10.38627
   344   1    -2.24907    -5.56000    10.38627
   345   1     0.00000     4.17000   -11.24534
   346   1     2.24907     5.56000   -10.38627
   347   1    -2.24907     5.56000   -10.38627
   348   1     2.24907    -5.56000   -10.38627
   349   1    -2.24907    -5.56000   -10.38627
   350   1    11.24534    -0.00000     4.17000
   351   1   -11.24534    -0.00000     4.17000
   352   1     1.39000    11.24534    -0.00000
   353   1     4.17000     9.52720     4.49813
   354   1     4.17000     9.52720    -4.49813
   355   1     8.66813     6.74720     2.78000
   356   1     8.66813     6.74720    -2.78000
   357   1    -4.17000     9.52720     4.49813
   358   1    -4.17000     9.52720    -4.49813
   359   1    -8.66813     6.74720     2.78000
   360   1    -8.66813     6.74720    -2.78000
   361   1     1.39000   -11.24534    -0.00000
   362   1     4.17000    -9.52720     4.49813
   363   1     4.17000    -9.52720    -4.49813
   364   1     8.66813    -6.74720     2.78000
   365   1     8.66813    -6.74720    -2.78000
   366   1    -4.17000    -9.52720     4.49813
   367   1    -4.17000    -9.52720    -4.49813
   368   1    -8.66813    -6.74720     2.78000
   369   1    -8.66813    -6.74720    -2.78000
   370   1     0.00000     1.39000    11.24534
   371   1     4.49813     4.17000     9.52720
   372   1    -4.49813     4.17000     9.52720
   373   1     4.49813    -4.17000     9.52720
   374   1    -4.49813    -4.17000     9.52720
   375   1     0.00000     1.39000   -11.24534
   376   1     4.49813     4.17000    -9.52720
   377   1    -4.49813     4.17000    -9.52720
   378   1     4.49813    -4.17000    -9.52720
   379   1    -4.49813    -4.17000    -9.52720
   380   1    11.24534    -0.00000     1.39000
   381   1   -11.24534    -0.00000     1.39000
   382   1    -1.39000    11.24534    -0.00000
   383   1     2.78000     8.66813     6.74720
   384   1     2.78000     8.66813    -6.74720
   385   1     9.52720     4.49813     4.17000
   386   1     9.52720     4.49813    -4.17000
   387   1    -2.78000     8.66813     6.74720
   388   1    -2.78000     8.66813    -6.74720
   389   1    -9.52720     4.49813     4.17000
   390   1    -9.52720     4.49813    -4.17000
   391   1    -1.39000   -11.24534    -0.00000
   392   1     2.78000    -8.66813     6.74720
   393   1     2.78000    -8.66813    -6.74720
   394   1     9.52720    -4.49813     4.17000
   395   1     9.52720    -4.49813    -4.17000
   396   1    -2.78000    -8.66813     6.74720
   397   1    -2.78000    -8.66813    -6.74720
   398   1    -9.52720    -4.49813     4.17000
   399   1    -9.52720    -4.49813    -4.17000
   400   1     0.00000    -1.39000    11.24534
   401   1     6.74720     2.78000     8.66813
   402   1    -6.74720     2.78000     8.66813
   403   1     6.74720    -2.78000     8.66813
   404   1    -6.74720    -2.78000     8.66813
   405   1     0.00000    -1.39000   -11.24534
   406   1     6.74720     2.78000    -8.66813
   407   1    -6.74720     2.78000    -8.66813
   408   1     6.74720    -2.78000    -8.66813
   409   1    -6.74720    -2.78000    -8.66813
   410   1    11.24534    -0.00000    -1.39000
   411   1   -11.24534    -0.00000    -1.39000
   412   1    -4.17000    11.24534    -0.00000
   413   1     1.39000     7.80907     8.99627
   414   1     1.39000     7.80907    -8.99627
   415   1    10.38627     2.24907     5.56000
   416   1    10.38627     2.24907    -5.56000
   417   1    -1.39000     7.80907     8.99627
   418   1    -1.39000     7.80907    -8.99627
   419   1   -10.38627     2.24907     5.56000
   420   1   -10.38627     2.24907    -5.56000
   421   1    -4.17000   -11.24534    -0.00000
   422   1     1.39000    -7.80907     8.99627
   423   1     1.39000    -7.80907    -8.99627
   424   1    10.38627    -2.24907     5.56000
   425   1    10.38627    -2.24907    -5.56000
   426   1    -1.39000    -7.80907     8.99627
   427   1    -1.39000    -7.80907    -8.99627
   428   1   -10.38627    -2.24907     5.56000
   429   1   -10.38627    -2.24907    -5.56000
   430   1     0.00000    -4.17000    11.24534
   431   1     8.99627     1.39000     7.80907
   432   1    -8.99627     1.39000     7.80907
   433   1     8.99627    -1.39000     7.80907
   434   1    -8.99627    -1.39000     7.80907
   435   1     0.00000    -4.17000   -11.24534
   436   1     8.99627     1.39000    -7.80907
   437   1    -8.99627     1.39000    -7.80907
   438   1     8.99627    -1.39000    -7.80907
   439   1    -8.99627    -1.39000    -7.80907
   440   1    11.24534    -0.00000    -4.17000
   441   1   -11.24534    -0.00000    -4.17000
   442   1     2.78000    10.38627     2.24907
   443   1     2.78000    10.38627    -2.24907
   444   1     6.41907     8.13720     3.63907
   445   1     6.41907     8.13720    -3.63907
   446   1     8.66813     6.74720    -0.00000
   447   1    -6.41907     8.13720     3.63907
   448   1    -6.41907     8.13720    -3.63907
   449   1    -8.66813     6.74720    -0.00000
   450   1     2.78000   -10.38627     2.24907
   451   1     2.78000   -10.38627    -2.24907
   452   1     6.41907    -8.13720     3.63907
   453   1     6.41907    -8.13720    -3.63907
   454   1     8.66813    -6.74720    -0.00000
   455   1    -6.41907    -8.13720     3.63907
   456   1    -6.41907    -8.13720    -3.63907
   457   1    -8.66813    -6.74720    -0.00000
   458   1     2.24907     2.78000    10.38627
   459   1    -2.24907     2.78000    10.38627
   460   1     2.24907     2.78000   -10.38627
   461   1    -2.24907     2.78000   -10.38627
   462   1     1.39000     9.52720     4.49813
   463   1     1.39000     9.52720    -4.49813
   464   1     7.27813     5.88813     5.02907
   465   1     7.27813     5.88813    -5.02907
   466   1     9.52720     4.49813    -1.39000
   467   1    -7.27813     5.88813     5.02907
   468   1    -7.27813     5.88813    -5.02907
   469   1    -9.52720     4.49813    -1.39000
   470   1     1.39000    -9.52720     4.49813
   471   1     1.39000    -9.52720    -4.49813
   472   1     7.27813    -5.88813     5.02907
   473   1     7.27813    -5.88813    -5.02907
   474   1     9.52720    -4.49813    -1.39000
   475   1    -7.27813    -5.88813     5.02907
   476   1    -7.27813    -5.88813    -5.02907
   477   1    -9.52720    -4.49813    -1.39000
   478   1     4.49813     1.39000     9.52720
   479   1    -4.49813     1.39000     9.52720
   480   1     4.49813     1.39000    -9.52720
   481   1    -4.49813     1.39000    -9.52720
   482   1     0.00000     8.66813     6.74720
   483   1     0.00000     8.66813    -6.74720
   484   1     8.13720     3.63907     6.41907
   485   1     8.13720     3.63907    -6.41907
   486   1    10.38627     2.24907    -2.78000
   487   1    -8.13720     3.63907     6.41907
   488   1    -8.13720     3.63907    -6.41907
   489   1   -10.38627     2.24907    -2.78000
   490   1     0.00000    -8.66813     6.74720
   491   1     0.00000    -8.66813    -6.74720
   492   1     8.13720    -3.63907     6.41907
   493   1     8.13720    -3.63907    -6.41907
   494   1    10.38627    -2.24907    -2.78000
   495   1    -8.13720    -3.63907     6.41907
   496   1    -8.13720    -3.63907    -6.41907
   497   1   -10.38627    -2.24907    -2.78000
   498   1     6.74720    -0.00000     8.66813
   499   1    -6.74720    -0.00000     8.66813
   500   1     6.74720    -0.00000    -8.66813
   501   1    -6.74720    -0.00000    -8.66813
   502   1     0.00000    10.38627     2.24907
   503   1     0.00000    10.38627    -2.24907
   504   1     5.02907     7.27813     5.88813
   505   1     5.02907     7.27813    -5.88813
   506   1     9.52720     4.49813     1.39000
   507   1    -5.02907     7.27813     5.88813
   508   1    -5.02907     7.27813    -5.88813
   509   1    -9.52720     4.49813     1.39000
   510   1     0.00000   -10.38627     2.24907
   511   1     0.00000   -10.38627    -2.24907
   512   1     5.02907    -7.27813     5.88813
   513   1     5.02907    -7.27813    -5.88813
   514   1     9.52720    -4.49813     1.39000
   515   1    -5.02907    -7.27813     5.88813
   516   1    -5.02907    -7.27813    -5.88813
   517   1    -9.52720    -4.49813     1.39000
   518   1     2.24907    -0.00000    10.38627
   519   1    -2.24907    -0.00000    10.38627
   520   1     2.24907    -0.00000   -10.38627
   521   1    -2.24907    -0.00000   -10.38627
   522   1    -1.39000     9.52720     4.49813
   523   1    -1.39000     9.52720    -4.49813
   524   1     5.88813     5.02907     7.27813
   525   1     5.88813     5.02907    -7.27813
   526   1    10.38627     2.24907    -0.00000
   527   1    -5.88813     5.02907     7.27813
   528   1    -5.88813     5.02907    -7.27813
   529   1   -10.38627     2.24907    -0.00000
   530   1    -1.39000    -9.52720     4.49813
   531   1    -1.39000    -9.52720    -4.49813
   532   1     5.88813    -5.02907     7.27813
   533   1     5.88813    -5.02907    -7.27813
   534   1    10.38627    -2.24907    -0.00000
   535   1    -5.88813    -5.02907     7.27813
   536   1    -5.88813    -5.02907    -7.27813
   537   1   -10.38627    -2.24907    -0.00000
   538   1     4.49813    -1.39000     9.52720
   539   1    -4.49813    -1.39000     9.52720
   540   1     4.49813    -1.39000    -9.52720
   541   1    -4.49813    -1.39000    -9.52720
   542   1    -2.78000    10.38627     2.24907
   543   1    -2.78000    10.38627    -2.24907
   544   1     3.63907     6.41907     8.13720
   545   1     3.63907     6.41907    -8.13720
   546   1    10.38627     2.24907     2.78000
   547   1    -3.63907     6.41907     8.13720
   548   1    -3.63907     6.41907    -8.13720
   549   1   -10.38627     2.24907     2.78000
   550   1    -2.78000   -10.38627     2.24907
   551   1    -2.78000   -10.38627    -2.24907
   552   1     3.63907    -6.41907     8.13720
   553   1     3.63907    -6.41907    -8.13720
   554   1    10.38627    -2.24907     2.78000
   555   1    -3.63907    -6.41907     8.13720
   556   1    -3.63907    -6.41907    -8.13720
   557   1   -10.38627    -2.24907     2.78000
   558   1     2.24907    -2.78000    10.38627
   559   1    -2.24907    -2.78000    10.38627
   560   1     2.24907    -2.78000   -10.38627
   561   1    -2.24907    -2.78000   -10.38627
   562   1     5.56000    13.49440    -0.00000
   563   1     6.95000    12.63534     2.24907
   564   1     6.95000    12.63534    -2.24907
   565   1     9.19907    11.24534     1.39000
   566   1     9.19907    11.24534    -1.39000
   567   1    -6.95000    12.63534     2.24907
   568   1    -6.95000    12.63534    -2.24907
   569   1    -9.19907    11.24534     1.39000
   570   1    -9.19907    11.24534    -1.39000
   571   1     5.56000   -13.49440    -0.00000
   572   1     6.95000   -12.63534     2.24907
   573   1     6.95000   -12.63534    -2.24907
   574   1     9.19907   -11.24534     1.39000
   575   1     9.19907   -11.24534    -1.39000
   576   1    -6.95000   -12.63534     2.24907
   577   1    -6.95000   -12.63534    -2.24907
   578   1    -9.19907   -11.24534     1.39000
   579   1    -9.19907   -11.24534    -1.39000
   580   1     0.00000     5.56000    13.49440
   581   1     2.24907     6.95000    12.63534
   582   1    -2.24907     6.95000    12.63534
   583   1     2.24907    -6.95000    12.63534
   584   1    -2.24907    -6.95000    12.63534
   585   1     0.00000     5.56000   -13.49440
   586   1     2.24907     6.95000   -12.63534
   587   1    -2.24907     6.95000   -12.63534
   588   1     2.24907    -6.95000   -12.63534
   589   1    -2.24907    -6.95000   -12.63534
   590   1    13.49440    -0.00000     5.56000
   591   1   -13.49440    -0.00000     5.56000
   592   1     2.78000    13.49440    -0.00000
   593   1     5.56000    11.77627     4.49813
   594   1     5.56000    11.77627    -4.49813
   595   1    10.05813     8.99627     2.78000
   596   1    10.05813     8.99627    -2.78000
   597   1    -5.56000    11.77627     4.49813
   598   1    -5.56000    11.77627    -4.49813
   599   1   -10.05813     8.99627     2.78000
   600   1   -10.05813     8.99627    -2.78000
   601   1     2.78000   -13.49440    -0.00000
   602   1     5.56000   -11.77627     4.49813
   603   1     5.56000   -11.77627    -4.49813
   604   1    10.05813    -8.99627     2.78000
   605   1    10.05813    -8.99627    -2.78000
   606   1    -5.56000   -11.77627     4.49813
   607   1    -5.56000   -11.77627    -4.49813
   608   1   -10.05813    -8.99627     2.78000
   609   1   -10.05813    -8.99627    -2.78000
   610   1     0.00000     2.78000    13.49440
   611   1     4.49813     5.56000    11.77627
   612   1    -4.49813     5.56000    11.77627
   613   1     4.49813    -5.56000    11.77627
   614   1    -4.49813    -5.56000    11.77627
   615   1     0.00000     2.78000   -13.49440
   616   1     4.49813     5.56000   -11.77627
   617   1    -4.49813     5.56000   -11.77627
   618   1     4.49813    -5.56000   -11.77627
   619   1    -4.49813    -5.56000   -11.77627
   620   1    13.49440    -0.00000     2.78000
   621   1   -13.49440    -0.00000     2.78000
   622   1     0.00000    13.49440    -0.00000
   623   1     4.17000    10.91720     6.74720
   624   1     4.17000    10.91720    -6.74720
   625   1    10.91720     6.74720     4.17000
   626   1    10.91720     6.74720    -4.17000
   627   1    -4.17000    10.91720     6.74720
   628   1    -4.17000    10.91720    -6.74720
   629   1   -10.91720     6.74720     4.17000
   630   1   -10.91720     6.74720    -4.17000
   631   1     0.00000   -13.49440    -0.00000
   632   1     4.17000   -10.91720     6.74720
   633   1     4.17000   -10.91720    -6.74720
   634   1    10.91720    -6.74720     4.17000