LAMMPS DATA FOR MEAM SIMULATION

    862   atoms
      3   atom types

  -23.64   23.64   xlo xhi
  -23.64   23.64   ylo yhi
  -23.64   23.64   zlo zhi

 Atoms

     1   1     0.80250     0.80250     0.80250
     2   1    -0.80250    -0.80250    -0.80250
     3   1    -0.80250    -0.80250     2.40750
     4   1     2.40750    -0.80250    -0.80250
     5   1    -0.80250     2.40750    -0.80250
     6   1     0.80250    -2.40750     0.80250
     7   1    -2.40750     0.80250     0.80250
     8   1     0.80250     0.80250    -2.40750
     9   1     2.40750    -0.80250     2.40750
    10   1    -0.80250     2.40750     2.40750
    11   1     2.40750     2.40750    -0.80250
    12   1    -2.40750    -2.40750     0.80250
    13   1     0.80250    -2.40750    -2.40750
    14   1    -2.40750     0.80250    -2.40750
    15   1     2.40750     2.40750     2.40750
    16   1     0.80250     0.80250     4.01250
    17   1     4.01250     0.80250     0.80250
    18   1     0.80250     4.01250     0.80250
    19   1    -0.80250    -4.01250    -0.80250
    20   1    -4.01250    -0.80250    -0.80250
    21   1    -0.80250    -0.80250    -4.01250
    22   1    -2.40750    -2.40750    -2.40750
    23   1     0.80250    -2.40750     4.01250
    24   1    -2.40750     0.80250     4.01250
    25   1     4.01250    -2.40750     0.80250
    26   1    -2.40750     4.01250     0.80250
    27   1     4.01250     0.80250    -2.40750
    28   1     0.80250     4.01250    -2.40750
    29   1    -0.80250    -4.01250     2.40750
    30   1    -4.01250    -0.80250     2.40750
    31   1     2.40750    -4.01250    -0.80250
    32   1    -4.01250     2.40750    -0.80250
    33   1     2.40750    -0.80250    -4.01250
    34   1    -0.80250     2.40750    -4.01250
    35   1     2.40750    -4.01250     2.40750
    36   1    -4.01250     2.40750     2.40750
    37   1    -2.40750    -2.40750     4.01250
    38   1     2.40750     2.40750    -4.01250
    39   1     4.01250    -2.40750    -2.40750
    40   1    -2.40750     4.01250    -2.40750
    41   1     4.01250     0.80250     4.01250
    42   1     0.80250     4.01250     4.01250
    43   1     4.01250     4.01250     0.80250
    44   1    -0.80250    -0.80250     5.61750
    45   1     5.61750    -0.80250    -0.80250
    46   1    -0.80250     5.61750    -0.80250
    47   1     0.80250    -5.61750     0.80250
    48   1    -5.61750     0.80250     0.80250
    49   1     0.80250     0.80250    -5.61750
    50   1    -4.01250    -4.01250    -0.80250
    51   1    -0.80250    -4.01250    -4.01250
    52   1    -4.01250    -0.80250    -4.01250
    53   1     2.40750    -0.80250     5.61750
    54   1    -0.80250     2.40750     5.61750
    55   1     5.61750    -0.80250     2.40750
    56   1    -0.80250     5.61750     2.40750
    57   1     4.01250    -2.40750     4.01250
    58   1    -2.40750     4.01250     4.01250
    59   1     5.61750     2.40750    -0.80250
    60   1     2.40750     5.61750    -0.80250
    61   1     4.01250     4.01250    -2.40750
    62   1    -4.01250    -4.01250     2.40750
    63   1    -2.40750    -5.61750     0.80250
    64   1    -5.61750    -2.40750     0.80250
    65   1     2.40750    -4.01250    -4.01250
    66   1    -4.01250     2.40750    -4.01250
    67   1     0.80250    -5.61750    -2.40750
    68   1    -5.61750     0.80250    -2.40750
    69   1     0.80250    -2.40750    -5.61750
    70   1    -2.40750     0.80250    -5.61750
    71   1     2.40750     2.40750     5.61750
    72   1     5.61750     2.40750     2.40750
    73   1     2.40750     5.61750     2.40750
    74   1    -2.40750    -5.61750    -2.40750
    75   1    -5.61750    -2.40750    -2.40750
    76   1    -2.40750    -2.40750    -5.61750
    77   1     4.01250     4.01250     4.01250
    78   1    -0.80250    -4.01250     5.61750
    79   1    -4.01250    -0.80250     5.61750
    80   1     0.80250    -5.61750     4.01250
    81   1    -5.61750     0.80250     4.01250
    82   1     5.61750    -4.01250    -0.80250
    83   1    -4.01250     5.61750    -0.80250
    84   1     4.01250    -5.61750     0.80250
    85   1    -5.61750     4.01250     0.80250
    86   1     5.61750    -0.80250    -4.01250
    87   1    -0.80250     5.61750    -4.01250
    88   1     4.01250     0.80250    -5.61750
    89   1     0.80250     4.01250    -5.61750
    90   1    -4.01250    -4.01250    -4.01250
    91   1     0.80250     0.80250     7.22250
    92   1     7.22250     0.80250     0.80250
    93   1     0.80250     7.22250     0.80250
    94   1     2.40750    -4.01250     5.61750
    95   1    -4.01250     2.40750     5.61750
    96   1     5.61750    -4.01250     2.40750
    97   1    -4.01250     5.61750     2.40750
    98   1     5.61750     2.40750    -4.01250
    99   1     2.40750     5.61750    -4.01250
   100   1    -2.40750    -5.61750     4.01250
   101   1    -5.61750    -2.40750     4.01250
   102   1     4.01250    -5.61750    -2.40750
   103   1    -5.61750     4.01250    -2.40750
   104   1     4.01250    -2.40750    -5.61750
   105   1    -2.40750     4.01250    -5.61750
   106   1    -0.80250    -7.22250    -0.80250
   107   1    -7.22250    -0.80250    -0.80250
   108   1    -0.80250    -0.80250    -7.22250
   109   1     0.80250    -2.40750     7.22250
   110   1    -2.40750     0.80250     7.22250
   111   1     7.22250    -2.40750     0.80250
   112   1    -2.40750     7.22250     0.80250
   113   1     7.22250     0.80250    -2.40750
   114   1     0.80250     7.22250    -2.40750
   115   1    -0.80250    -7.22250     2.40750
   116   1    -7.22250    -0.80250     2.40750
   117   1     2.40750    -7.22250    -0.80250
   118   1    -7.22250     2.40750    -0.80250
   119   1     2.40750    -0.80250    -7.22250
   120   1    -0.80250     2.40750    -7.22250
   121   1     5.61750    -0.80250     5.61750
   122   1    -0.80250     5.61750     5.61750
   123   1     5.61750     5.61750    -0.80250
   124   1    -2.40750    -2.40750     7.22250
   125   1     4.01250    -5.61750     4.01250
   126   1    -5.61750     4.01250     4.01250
   127   1     7.22250    -2.40750    -2.40750
   128   1    -2.40750     7.22250    -2.40750
   129   1    -4.01250    -4.01250     5.61750
   130   1     4.01250     4.01250    -5.61750
   131   1     2.40750    -7.22250     2.40750
   132   1    -7.22250     2.40750     2.40750
   133   1     5.61750    -4.01250    -4.01250
   134   1    -4.01250     5.61750    -4.01250
   135   1     2.40750     2.40750    -7.22250
   136   1    -5.61750    -5.61750     0.80250
   137   1     0.80250    -5.61750    -5.61750
   138   1    -5.61750     0.80250    -5.61750
   139   1     5.61750     2.40750     5.61750
   140   1     2.40750     5.61750     5.61750
   141   1     4.01250     0.80250     7.22250
   142   1     0.80250     4.01250     7.22250
   143   1     5.61750     5.61750     2.40750
   144   1     7.22250     0.80250     4.01250
   145   1     0.80250     7.22250     4.01250
   146   1     7.22250     4.01250     0.80250
   147   1     4.01250     7.22250     0.80250
   148   1    -4.01250    -7.22250    -0.80250
   149   1    -7.22250    -4.01250    -0.80250
   150   1    -0.80250    -7.22250    -4.01250
   151   1    -7.22250    -0.80250    -4.01250
   152   1    -5.61750    -5.61750    -2.40750
   153   1    -0.80250    -4.01250    -7.22250
   154   1    -4.01250    -0.80250    -7.22250
   155   1    -2.40750    -5.61750    -5.61750
   156   1    -5.61750    -2.40750    -5.61750
   157   1     4.01250    -2.40750     7.22250
   158   1    -2.40750     4.01250     7.22250
   159   1     7.22250    -2.40750     4.01250
   160   1    -2.40750     7.22250     4.01250
   161   1     7.22250     4.01250    -2.40750
   162   1     4.01250     7.22250    -2.40750
   163   1    -4.01250    -7.22250     2.40750
   164   1    -7.22250    -4.01250     2.40750
   165   1     2.40750    -7.22250    -4.01250
   166   1    -7.22250     2.40750    -4.01250
   167   1     2.40750    -4.01250    -7.22250
   168   1    -4.01250     2.40750    -7.22250
   169   1    -0.80250    -0.80250     8.82750
   170   1     5.61750    -4.01250     5.61750
   171   1    -4.01250     5.61750     5.61750
   172   1     8.82750    -0.80250    -0.80250
   173   1    -0.80250     8.82750    -0.80250
   174   1     5.61750     5.61750    -4.01250
   175   1    -5.61750    -5.61750     4.01250
   176   1     0.80250    -8.82750     0.80250
   177   1    -8.82750     0.80250     0.80250
   178   1     4.01250    -5.61750    -5.61750
   179   1    -5.61750     4.01250    -5.61750
   180   1     0.80250     0.80250    -8.82750
   181   1     4.01250     4.01250     7.22250
   182   1     7.22250     4.01250     4.01250
   183   1     4.01250     7.22250     4.01250
   184   1     2.40750    -0.80250     8.82750
   185   1    -0.80250     2.40750     8.82750
   186   1     8.82750    -0.80250     2.40750
   187   1    -0.80250     8.82750     2.40750
   188   1     8.82750     2.40750    -0.80250
   189   1     2.40750     8.82750    -0.80250
   190   1     0.80250    -5.61750     7.22250
   191   1    -5.61750     0.80250     7.22250
   192   1     7.22250    -5.61750     0.80250
   193   1    -5.61750     7.22250     0.80250
   194   1    -0.80250    -7.22250     5.61750
   195   1    -7.22250    -0.80250     5.61750
   196   1     7.22250     0.80250    -5.61750
   197   1     0.80250     7.22250    -5.61750
   198   1     5.61750    -7.22250    -0.80250
   199   1    -7.22250     5.61750    -0.80250
   200   1     5.61750    -0.80250    -7.22250
   201   1    -0.80250     5.61750    -7.22250
   202   1    -2.40750    -8.82750     0.80250
   203   1    -8.82750    -2.40750     0.80250
   204   1     0.80250    -8.82750    -2.40750
   205   1    -8.82750     0.80250    -2.40750
   206   1     0.80250    -2.40750    -8.82750
   207   1    -2.40750     0.80250    -8.82750
   208   1    -4.01250    -7.22250    -4.01250
   209   1    -7.22250    -4.01250    -4.01250
   210   1    -4.01250    -4.01250    -7.22250
   211   1     2.40750     2.40750     8.82750
   212   1     8.82750     2.40750     2.40750
   213   1     2.40750     8.82750     2.40750
   214   1     2.40750    -7.22250     5.61750
   215   1    -7.22250     2.40750     5.61750
   216   1    -2.40750    -5.61750     7.22250
   217   1    -5.61750    -2.40750     7.22250
   218   1     5.61750    -7.22250     2.40750
   219   1    -7.22250     5.61750     2.40750
   220   1     7.22250    -5.61750    -2.40750
   221   1    -5.61750     7.22250    -2.40750
   222   1     5.61750     2.40750    -7.22250
   223   1     2.40750     5.61750    -7.22250
   224   1     7.22250    -2.40750    -5.61750
   225   1    -2.40750     7.22250    -5.61750
   226   1    -2.40750    -8.82750    -2.40750
   227   1    -8.82750    -2.40750    -2.40750
   228   1    -2.40750    -2.40750    -8.82750
   229   1     5.61750     5.61750     5.61750
   230   1    -0.80250    -4.01250     8.82750
   231   1    -4.01250    -0.80250     8.82750
   232   1     8.82750    -4.01250    -0.80250
   233   1    -4.01250     8.82750    -0.80250
   234   1     8.82750    -0.80250    -4.01250
   235   1    -0.80250     8.82750    -4.01250
   236   1     0.80250    -8.82750     4.01250
   237   1    -8.82750     0.80250     4.01250
   238   1     4.01250    -8.82750     0.80250
   239   1    -8.82750     4.01250     0.80250
   240   1     4.01250     0.80250    -8.82750
   241   1     0.80250     4.01250    -8.82750
   242   1    -5.61750    -5.61750    -5.61750
   243   1     2.40750    -4.01250     8.82750
   244   1    -4.01250     2.40750     8.82750
   245   1     4.01250    -5.61750     7.22250
   246   1    -5.61750     4.01250     7.22250
   247   1     8.82750    -4.01250     2.40750
   248   1    -4.01250     8.82750     2.40750
   249   1     7.22250    -5.61750     4.01250
   250   1    -5.61750     7.22250     4.01250
   251   1     8.82750     2.40750    -4.01250
   252   1     2.40750     8.82750    -4.01250
   253   1     7.22250     4.01250    -5.61750
   254   1     4.01250     7.22250    -5.61750
   255   1    -4.01250    -7.22250     5.61750
   256   1    -7.22250    -4.01250     5.61750
   257   1    -2.40750    -8.82750     4.01250
   258   1    -8.82750    -2.40750     4.01250
   259   1     5.61750    -7.22250    -4.01250
   260   1    -7.22250     5.61750    -4.01250
   261   1     4.01250    -8.82750    -2.40750
   262   1    -8.82750     4.01250    -2.40750
   263   1     5.61750    -4.01250    -7.22250
   264   1    -4.01250     5.61750    -7.22250
   265   1     4.01250    -2.40750    -8.82750
   266   1    -2.40750     4.01250    -8.82750
   267   1     7.22250     0.80250     7.22250
   268   1     0.80250     7.22250     7.22250
   269   1     7.22250     7.22250     0.80250
   270   1    -7.22250    -7.22250    -0.80250
   271   1    -0.80250    -7.22250    -7.22250
   272   1    -7.22250    -0.80250    -7.22250
   273   1     5.61750    -0.80250     8.82750
   274   1    -0.80250     5.61750     8.82750
   275   1     0.80250     0.80250    10.43250
   276   1     8.82750    -0.80250     5.61750
   277   1    -0.80250     8.82750     5.61750
   278   1     7.22250    -2.40750     7.22250
   279   1    -2.40750     7.22250     7.22250
   280   1     8.82750     5.61750    -0.80250
   281   1     5.61750     8.82750    -0.80250
   282   1    10.43250     0.80250     0.80250
   283   1     0.80250    10.43250     0.80250
   284   1     7.22250     7.22250    -2.40750
   285   1    -4.01250    -4.01250     8.82750
   286   1     4.01250    -8.82750     4.01250
   287   1    -8.82750     4.01250     4.01250
   288   1     8.82750    -4.01250    -4.01250
   289   1    -4.01250     8.82750    -4.01250
   290   1     4.01250     4.01250    -8.82750
   291   1    -7.22250    -7.22250     2.40750
   292   1    -0.80250   -10.43250    -0.80250
   293   1   -10.43250    -0.80250    -0.80250
   294   1    -5.61750    -8.82750     0.80250
   295   1    -8.82750    -5.61750     0.80250
   296   1     2.40750    -7.22250    -7.22250
   297   1    -7.22250     2.40750    -7.22250
   298   1     0.80250    -8.82750    -5.61750
   299   1    -8.82750     0.80250    -5.61750
   300   1    -0.80250    -0.80250   -10.43250
   301   1     0.80250    -5.61750    -8.82750
   302   1    -5.61750     0.80250    -8.82750
   303   1     5.61750     2.40750     8.82750
   304   1     2.40750     5.61750     8.82750
   305   1     8.82750     2.40750     5.61750
   306   1     2.40750     8.82750     5.61750
   307   1     8.82750     5.61750     2.40750
   308   1     5.61750     8.82750     2.40750
   309   1     0.80250    -2.40750    10.43250
   310   1    -2.40750     0.80250    10.43250
   311   1    10.43250    -2.40750     0.80250
   312   1    -2.40750    10.43250     0.80250
   313   1    10.43250     0.80250    -2.40750
   314   1     0.80250    10.43250    -2.40750
   315   1     5.61750    -7.22250     5.61750
   316   1    -7.22250     5.61750     5.61750
   317   1     5.61750     5.61750    -7.22250
   318   1    -5.61750    -5.61750     7.22250
   319   1     7.22250    -5.61750    -5.61750
   320   1    -5.61750     7.22250    -5.61750
   321   1    -0.80250   -10.43250     2.40750
   322   1   -10.43250    -0.80250     2.40750
   323   1     2.40750   -10.43250    -0.80250
   324   1   -10.43250     2.40750    -0.80250
   325   1     2.40750    -0.80250   -10.43250
   326   1    -0.80250     2.40750   -10.43250
   327   1    -5.61750    -8.82750    -2.40750
   328   1    -8.82750    -5.61750    -2.40750
   329   1    -2.40750    -8.82750    -5.61750
   330   1    -8.82750    -2.40750    -5.61750
   331   1    -2.40750    -5.61750    -8.82750
   332   1    -5.61750    -2.40750    -8.82750
   333   1     7.22250     4.01250     7.22250
   334   1     4.01250     7.22250     7.22250
   335   1     7.22250     7.22250     4.01250
   336   1    -2.40750    -2.40750    10.43250
   337   1    10.43250    -2.40750    -2.40750
   338   1    -2.40750    10.43250    -2.40750
   339   1     2.40750   -10.43250     2.40750
   340   1   -10.43250     2.40750     2.40750
   341   1     2.40750     2.40750   -10.43250
   342   1    -7.22250    -7.22250    -4.01250
   343   1    -4.01250    -7.22250    -7.22250
   344   1    -7.22250    -4.01250    -7.22250
   345   1     4.01250     0.80250    10.43250
   346   1     0.80250     4.01250    10.43250
   347   1    10.43250     0.80250     4.01250
   348   1     0.80250    10.43250     4.01250
   349   1    10.43250     4.01250     0.80250
   350   1     4.01250    10.43250     0.80250
   351   1     5.61750    -4.01250     8.82750
   352   1    -4.01250     5.61750     8.82750
   353   1     8.82750    -4.01250     5.61750
   354   1    -4.01250     8.82750     5.61750
   355   1     8.82750     5.61750    -4.01250
   356   1     5.61750     8.82750    -4.01250
   357   1    -5.61750    -8.82750     4.01250
   358   1    -8.82750    -5.61750     4.01250
   359   1     4.01250    -8.82750    -5.61750
   360   1    -8.82750     4.01250    -5.61750
   361   1     4.01250    -5.61750    -8.82750
   362   1    -5.61750     4.01250    -8.82750
   363   1    -4.01250   -10.43250    -0.80250
   364   1   -10.43250    -4.01250    -0.80250
   365   1    -0.80250   -10.43250    -4.01250
   366   1   -10.43250    -0.80250    -4.01250
   367   1    -0.80250    -4.01250   -10.43250
   368   1    -4.01250    -0.80250   -10.43250
   369   1     4.01250    -2.40750    10.43250
   370   1    -2.40750     4.01250    10.43250
   371   1    10.43250    -2.40750     4.01250
   372   1    -2.40750    10.43250     4.01250
   373   1    10.43250     4.01250    -2.40750
   374   1     4.01250    10.43250    -2.40750
   375   1    -0.80250    -7.22250     8.82750
   376   1    -7.22250    -0.80250     8.82750
   377   1     0.80250    -8.82750     7.22250
   378   1    -8.82750     0.80250     7.22250
   379   1     8.82750    -7.22250    -0.80250
   380   1    -7.22250     8.82750    -0.80250
   381   1     7.22250    -8.82750     0.80250
   382   1    -8.82750     7.22250     0.80250
   383   1     8.82750    -0.80250    -7.22250
   384   1    -0.80250     8.82750    -7.22250
   385   1     7.22250     0.80250    -8.82750
   386   1     0.80250     7.22250    -8.82750
   387   1    -4.01250   -10.43250     2.40750
   388   1   -10.43250    -4.01250     2.40750
   389   1     2.40750   -10.43250    -4.01250
   390   1   -10.43250     2.40750    -4.01250
   391   1     2.40750    -4.01250   -10.43250
   392   1    -4.01250     2.40750   -10.43250
   393   1     7.22250    -5.61750     7.22250
   394   1    -5.61750     7.22250     7.22250
   395   1     2.40750    -7.22250     8.82750
   396   1    -7.22250     2.40750     8.82750
   397   1     7.22250     7.22250    -5.61750
   398   1     8.82750    -7.22250     2.40750
   399   1    -7.22250     8.82750     2.40750
   400   1     8.82750     2.40750    -7.22250
   401   1     2.40750     8.82750    -7.22250
   402   1    -2.40750    -8.82750     7.22250
   403   1    -8.82750    -2.40750     7.22250
   404   1     7.22250    -8.82750    -2.40750
   405   1    -8.82750     7.22250    -2.40750
   406   1    -7.22250    -7.22250     5.61750
   407   1     7.22250    -2.40750    -8.82750
   408   1    -2.40750     7.22250    -8.82750
   409   1     5.61750    -7.22250    -7.22250
   410   1    -7.22250     5.61750    -7.22250
   411   1     5.61750     5.61750     8.82750
   412   1     4.01250     4.01250    10.43250
   413   1     8.82750     5.61750     5.61750
   414   1     5.61750     8.82750     5.61750
   415   1    10.43250     4.01250     4.01250
   416   1     4.01250    10.43250     4.01250
   417   1     0.80250    -5.61750    10.43250
   418   1    -5.61750     0.80250    10.43250
   419   1    10.43250    -5.61750     0.80250
   420   1    -5.61750    10.43250     0.80250
   421   1    10.43250     0.80250    -5.61750
   422   1     0.80250    10.43250    -5.61750
   423   1    -0.80250   -10.43250     5.61750
   424   1   -10.43250    -0.80250     5.61750
   425   1     5.61750   -10.43250    -0.80250
   426   1   -10.43250     5.61750    -0.80250
   427   1     5.61750    -0.80250   -10.43250
   428   1    -0.80250     5.61750   -10.43250
   429   1    -4.01250   -10.43250    -4.01250
   430   1   -10.43250    -4.01250    -4.01250
   431   1    -5.61750    -8.82750    -5.61750
   432   1    -8.82750    -5.61750    -5.61750
   433   1    -4.01250    -4.01250   -10.43250
   434   1    -5.61750    -5.61750    -8.82750
   435   1    -0.80250    -0.80250    12.03750
   436   1    12.03750    -0.80250    -0.80250
   437   1    -0.80250    12.03750    -0.80250
   438   1    -2.40750    -5.61750    10.43250
   439   1    -5.61750    -2.40750    10.43250
   440   1     4.01250    -8.82750     7.22250
   441   1    -8.82750     4.01250     7.22250
   442   1     7.22250    -8.82750     4.01250
   443   1    -8.82750     7.22250     4.01250
   444   1    -4.01250    -7.22250     8.82750
   445   1    -7.22250    -4.01250     8.82750
   446   1    10.43250    -5.61750    -2.40750
   447   1    -5.61750    10.43250    -2.40750
   448   1     2.40750   -10.43250     5.61750
   449   1   -10.43250     2.40750     5.61750
   450   1    10.43250    -2.40750    -5.61750
   451   1    -2.40750    10.43250    -5.61750
   452   1     5.61750   -10.43250     2.40750
   453   1   -10.43250     5.61750     2.40750
   454   1     7.22250     4.01250    -8.82750
   455   1     4.01250     7.22250    -8.82750
   456   1     8.82750    -7.22250    -4.01250
   457   1    -7.22250     8.82750    -4.01250
   458   1     8.82750    -4.01250    -7.22250
   459   1    -4.01250     8.82750    -7.22250
   460   1     5.61750     2.40750   -10.43250
   461   1     2.40750     5.61750   -10.43250
   462   1     0.80250   -12.03750     0.80250
   463   1   -12.03750     0.80250     0.80250
   464   1     0.80250     0.80250   -12.03750
   465   1     2.40750    -0.80250    12.03750
   466   1    -0.80250     2.40750    12.03750
   467   1    12.03750    -0.80250     2.40750
   468   1    -0.80250    12.03750     2.40750
   469   1    12.03750     2.40750    -0.80250
   470   1     2.40750    12.03750    -0.80250
   471   1    -2.40750   -12.03750     0.80250
   472   1   -12.03750    -2.40750     0.80250
   473   1     0.80250   -12.03750    -2.40750
   474   1   -12.03750     0.80250    -2.40750
   475   1     0.80250    -2.40750   -12.03750
   476   1    -2.40750     0.80250   -12.03750
   477   1     7.22250     7.22250     7.22250
   478   1     2.40750     2.40750    12.03750
   479   1     8.82750    -0.80250     8.82750
   480   1    -0.80250     8.82750     8.82750
   481   1    12.03750     2.40750     2.40750
   482   1     2.40750    12.03750     2.40750
   483   1     8.82750     8.82750    -0.80250
   484   1     4.01250    -5.61750    10.43250
   485   1    -5.61750     4.01250    10.43250
   486   1    10.43250    -5.61750     4.01250
   487   1    -5.61750    10.43250     4.01250
   488   1    10.43250     4.01250    -5.61750
   489   1     4.01250    10.43250    -5.61750
   490   1    -4.01250   -10.43250     5.61750
   491   1   -10.43250    -4.01250     5.61750
   492   1     5.61750   -10.43250    -4.01250
   493   1   -10.43250     5.61750    -4.01250
   494   1     5.61750    -4.01250   -10.43250
   495   1    -4.01250     5.61750   -10.43250
   496   1    -8.82750    -8.82750     0.80250
   497   1    -2.40750   -12.03750    -2.40750
   498   1   -12.03750    -2.40750    -2.40750
   499   1     0.80250    -8.82750    -8.82750
   500   1    -8.82750     0.80250    -8.82750
   501   1    -2.40750    -2.40750   -12.03750
   502   1    -7.22250    -7.22250    -7.22250
   503   1     8.82750     2.40750     8.82750
   504   1     2.40750     8.82750     8.82750
   505   1     7.22250     0.80250    10.43250
   506   1     0.80250     7.22250    10.43250
   507   1    10.43250     0.80250     7.22250
   508   1     0.80250    10.43250     7.22250
   509   1     8.82750     8.82750     2.40750
   510   1    10.43250     7.22250     0.80250
   511   1     7.22250    10.43250     0.80250
   512   1    -0.80250    -4.01250    12.03750
   513   1    -4.01250    -0.80250    12.03750
   514   1     5.61750    -7.22250     8.82750
   515   1    -7.22250     5.61750     8.82750
   516   1     8.82750    -7.22250     5.61750
   517   1    -7.22250     8.82750     5.61750
   518   1    12.03750    -4.01250    -0.80250
   519   1    -4.01250    12.03750    -0.80250
   520   1    12.03750    -0.80250    -4.01250
   521   1    -0.80250    12.03750    -4.01250
   522   1     8.82750     5.61750    -7.22250
   523   1     5.61750     8.82750    -7.22250
   524   1    -5.61750    -8.82750     7.22250
   525   1    -8.82750    -5.61750     7.22250
   526   1     0.80250   -12.03750     4.01250
   527   1   -12.03750     0.80250     4.01250
   528   1     4.01250   -12.03750     0.80250
   529   1   -12.03750     4.01250     0.80250
   530   1     7.22250    -8.82750    -5.61750
   531   1    -8.82750     7.22250    -5.61750
   532   1     7.22250    -5.61750    -8.82750
   533   1    -5.61750     7.22250    -8.82750
   534   1     4.01250     0.80250   -12.03750
   535   1     0.80250     4.01250   -12.03750
   536   1    -7.22250   -10.43250    -0.80250
   537   1   -10.43250    -7.22250    -0.80250
   538   1    -8.82750    -8.82750    -2.40750
   539   1    -0.80250   -10.43250    -7.22250
   540   1   -10.43250    -0.80250    -7.22250
   541   1    -0.80250    -7.22250   -10.43250
   542   1    -7.22250    -0.80250   -10.43250
   543   1    -2.40750    -8.82750    -8.82750
   544   1    -8.82750    -2.40750    -8.82750
   545   1     7.22250    -2.40750    10.43250
   546   1    -2.40750     7.22250    10.43250
   547   1    10.43250    -2.40750     7.22250
   548   1    -2.40750    10.43250     7.22250
   549   1     2.40750    -4.01250    12.03750
   550   1    -4.01250     2.40750    12.03750
   551   1    10.43250     7.22250    -2.40750
   552   1     7.22250    10.43250    -2.40750
   553   1    12.03750    -4.01250     2.40750
   554   1    -4.01250    12.03750     2.40750
   555   1    12.03750     2.40750    -4.01250
   556   1     2.40750    12.03750    -4.01250
   557   1    -2.40750   -12.03750     4.01250
   558   1   -12.03750    -2.40750     4.01250
   559   1     4.01250   -12.03750    -2.40750
   560   1   -12.03750     4.01250    -2.40750
   561   1    -7.22250   -10.43250     2.40750
   562   1   -10.43250    -7.22250     2.40750
   563   1     4.01250    -2.40750   -12.03750
   564   1    -2.40750     4.01250   -12.03750
   565   1     2.40750   -10.43250    -7.22250
   566   1   -10.43250     2.40750    -7.22250
   567   1     2.40750    -7.22250   -10.43250
   568   1    -7.22250     2.40750   -10.43250
   569   1     8.82750    -4.01250     8.82750
   570   1    -4.01250     8.82750     8.82750
   571   1     8.82750     8.82750    -4.01250
   572   1    -5.61750    -5.61750    10.43250
   573   1     5.61750   -10.43250     5.61750
   574   1   -10.43250     5.61750     5.61750
   575   1    10.43250    -5.61750    -5.61750
   576   1    -5.61750    10.43250    -5.61750
   577   1     5.61750     5.61750   -10.43250
   578   1    -8.82750    -8.82750     4.01250
   579   1     4.01250    -8.82750    -8.82750
   580   1    -8.82750     4.01250    -8.82750
   581   1     7.22250     4.01250    10.43250
   582   1     4.01250     7.22250    10.43250
   583   1    10.43250     4.01250     7.22250
   584   1     4.01250    10.43250     7.22250
   585   1    10.43250     7.22250     4.01250
   586   1     7.22250    10.43250     4.01250
   587   1     5.61750    -0.80250    12.03750
   588   1    -0.80250     5.61750    12.03750
   589   1    12.03750    -0.80250     5.61750
   590   1    -0.80250    12.03750     5.61750
   591   1    12.03750     5.61750    -0.80250
   592   1     5.61750    12.03750    -0.80250
   593   1    -4.01250    -4.01250    12.03750
   594   1    12.03750    -4.01250    -4.01250
   595   1    -4.01250    12.03750    -4.01250
   596   1     4.01250   -12.03750     4.01250
   597   1   -12.03750     4.01250     4.01250
   598   1     4.01250     4.01250   -12.03750
   599   1    -5.61750   -12.03750     0.80250
   600   1   -12.03750    -5.61750     0.80250
   601   1     0.80250   -12.03750    -5.61750
   602   1   -12.03750     0.80250    -5.61750
   603   1     0.80250    -5.61750   -12.03750
   604   1    -5.61750     0.80250   -12.03750
   605   1    -7.22250   -10.43250    -4.01250
   606   1   -10.43250    -7.22250    -4.01250
   607   1    -4.01250   -10.43250    -7.22250
   608   1   -10.43250    -4.01250    -7.22250
   609   1    -4.01250    -7.22250   -10.43250
   610   1    -7.22250    -4.01250   -10.43250
   611   1     5.61750     2.40750    12.03750
   612   1     2.40750     5.61750    12.03750
   613   1    12.03750     2.40750     5.61750
   614   1     2.40750    12.03750     5.61750
   615   1    12.03750     5.61750     2.40750
   616   1     5.61750    12.03750     2.40750
   617   1     7.22250    -8.82750     7.22250
   618   1    -8.82750     7.22250     7.22250
   619   1     7.22250     7.22250    -8.82750
   620   1    -7.22250    -7.22250     8.82750
   621   1     8.82750    -7.22250    -7.22250
   622   1    -7.22250     8.82750    -7.22250
   623   1    -5.61750   -12.03750    -2.40750
   624   1   -12.03750    -5.61750    -2.40750
   625   1    -2.40750   -12.03750    -5.61750
   626   1   -12.03750    -2.40750    -5.61750
   627   1    -2.40750    -5.61750   -12.03750
   628   1    -5.61750    -2.40750   -12.03750
   629   1     8.82750     5.61750     8.82750
   630   1     5.61750     8.82750     8.82750
   631   1     8.82750     8.82750     5.61750
   632   1     0.80250     0.80250    13.64250
   633   1    13.64250     0.80250     0.80250
   634   1     0.80250    13.64250     0.80250