LAMMPS DATA FOR MEAM SIMULATION

   4321   atoms
      3   atom types

  -33.55   33.55   xlo xhi
  -33.55   33.55   ylo yhi
  -33.55   33.55   zlo zhi

 Atoms

     1   2     0.00000    -7.84889   -23.54666
     2   2    -3.92444    -3.92444   -23.54666
     3   1     0.00000    -3.92444   -23.54666
     4   2     3.92444    -3.92444   -23.54666
     5   1    -7.84889     0.00000   -23.54666
     6   1    -3.92444     0.00000   -23.54666
     7   2     0.00000     0.00000   -23.54666
     8   2     3.92444     0.00000   -23.54666
     9   1     7.84889     0.00000   -23.54666
    10   1    -3.92444     3.92444   -23.54666
    11   2     0.00000     3.92444   -23.54666
    12   1     3.92444     3.92444   -23.54666
    13   2     0.00000     7.84889   -23.54666
    14   2    -7.84889   -11.77333   -19.62221
    15   1    -3.92444   -11.77333   -19.62221
    16   3     0.00000   -11.77333   -19.62221
    17   2     3.92444   -11.77333   -19.62221
    18   2     7.84889   -11.77333   -19.62221
    19   2   -11.77333    -7.84889   -19.62221
    20   2    -7.84889    -7.84889   -19.62221
    21   2    -3.92444    -7.84889   -19.62221
    22   1     0.00000    -7.84889   -19.62221
    23   2     3.92444    -7.84889   -19.62221
    24   1     7.84889    -7.84889   -19.62221
    25   2    11.77333    -7.84889   -19.62221
    26   1   -11.77333    -3.92444   -19.62221
    27   1    -7.84889    -3.92444   -19.62221
    28   1    -3.92444    -3.92444   -19.62221
    29   1     0.00000    -3.92444   -19.62221
    30   2     3.92444    -3.92444   -19.62221
    31   2     7.84889    -3.92444   -19.62221
    32   3    11.77333    -3.92444   -19.62221
    33   1   -11.77333     0.00000   -19.62221
    34   1    -7.84889     0.00000   -19.62221
    35   3    -3.92444     0.00000   -19.62221
    36   2     0.00000     0.00000   -19.62221
    37   2     3.92444     0.00000   -19.62221
    38   2     7.84889     0.00000   -19.62221
    39   1    11.77333     0.00000   -19.62221
    40   2   -11.77333     3.92444   -19.62221
    41   1    -7.84889     3.92444   -19.62221
    42   2    -3.92444     3.92444   -19.62221
    43   2     0.00000     3.92444   -19.62221
    44   2     3.92444     3.92444   -19.62221
    45   2     7.84889     3.92444   -19.62221
    46   2    11.77333     3.92444   -19.62221
    47   2   -11.77333     7.84889   -19.62221
    48   2    -7.84889     7.84889   -19.62221
    49   1    -3.92444     7.84889   -19.62221
    50   1     0.00000     7.84889   -19.62221
    51   1     3.92444     7.84889   -19.62221
    52   2     7.84889     7.84889   -19.62221
    53   2    11.77333     7.84889   -19.62221
    54   1    -7.84889    11.77333   -19.62221
    55   2    -3.92444    11.77333   -19.62221
    56   1     0.00000    11.77333   -19.62221
    57   2     3.92444    11.77333   -19.62221
    58   1     7.84889    11.77333   -19.62221
    59   2    -7.84889   -15.69777   -15.69777
    60   3    -3.92444   -15.69777   -15.69777
    61   2     0.00000   -15.69777   -15.69777
    62   2     3.92444   -15.69777   -15.69777
    63   1     7.84889   -15.69777   -15.69777
    64   1   -11.77333   -11.77333   -15.69777
    65   2    -7.84889   -11.77333   -15.69777
    66   1    -3.92444   -11.77333   -15.69777
    67   1     0.00000   -11.77333   -15.69777
    68   2     3.92444   -11.77333   -15.69777
    69   3     7.84889   -11.77333   -15.69777
    70   1    11.77333   -11.77333   -15.69777
    71   1   -15.69777    -7.84889   -15.69777
    72   3   -11.77333    -7.84889   -15.69777
    73   1    -7.84889    -7.84889   -15.69777
    74   3    -3.92444    -7.84889   -15.69777
    75   3     0.00000    -7.84889   -15.69777
    76   2     3.92444    -7.84889   -15.69777
    77   3     7.84889    -7.84889   -15.69777
    78   2    11.77333    -7.84889   -15.69777
    79   1    15.69777    -7.84889   -15.69777
    80   1   -15.69777    -3.92444   -15.69777
    81   1   -11.77333    -3.92444   -15.69777
    82   3    -7.84889    -3.92444   -15.69777
    83   1    -3.92444    -3.92444   -15.69777
    84   3     0.00000    -3.92444   -15.69777
    85   2     3.92444    -3.92444   -15.69777
    86   2     7.84889    -3.92444   -15.69777
    87   1    11.77333    -3.92444   -15.69777
    88   1    15.69777    -3.92444   -15.69777
    89   2   -15.69777     0.00000   -15.69777
    90   1   -11.77333     0.00000   -15.69777
    91   1    -7.84889     0.00000   -15.69777
    92   2    -3.92444     0.00000   -15.69777
    93   2     0.00000     0.00000   -15.69777
    94   1     3.92444     0.00000   -15.69777
    95   2     7.84889     0.00000   -15.69777
    96   1    11.77333     0.00000   -15.69777
    97   1    15.69777     0.00000   -15.69777
    98   1   -15.69777     3.92444   -15.69777
    99   2   -11.77333     3.92444   -15.69777
   100   1    -7.84889     3.92444   -15.69777
   101   2    -3.92444     3.92444   -15.69777
   102   3     0.00000     3.92444   -15.69777
   103   3     3.92444     3.92444   -15.69777
   104   3     7.84889     3.92444   -15.69777
   105   1    11.77333     3.92444   -15.69777
   106   1    15.69777     3.92444   -15.69777
   107   2   -15.69777     7.84889   -15.69777
   108   2   -11.77333     7.84889   -15.69777
   109   1    -7.84889     7.84889   -15.69777
   110   1    -3.92444     7.84889   -15.69777
   111   2     0.00000     7.84889   -15.69777
   112   2     3.92444     7.84889   -15.69777
   113   3     7.84889     7.84889   -15.69777
   114   2    11.77333     7.84889   -15.69777
   115   2    15.69777     7.84889   -15.69777
   116   2   -11.77333    11.77333   -15.69777
   117   2    -7.84889    11.77333   -15.69777
   118   1    -3.92444    11.77333   -15.69777
   119   2     0.00000    11.77333   -15.69777
   120   2     3.92444    11.77333   -15.69777
   121   1     7.84889    11.77333   -15.69777
   122   2    11.77333    11.77333   -15.69777
   123   2    -7.84889    15.69777   -15.69777
   124   1    -3.92444    15.69777   -15.69777
   125   1     0.00000    15.69777   -15.69777
   126   1     3.92444    15.69777   -15.69777
   127   1     7.84889    15.69777   -15.69777
   128   1    -7.84889   -19.62221   -11.77333
   129   1    -3.92444   -19.62221   -11.77333
   130   3     0.00000   -19.62221   -11.77333
   131   2     3.92444   -19.62221   -11.77333
   132   2     7.84889   -19.62221   -11.77333
   133   1   -11.77333   -15.69777   -11.77333
   134   2    -7.84889   -15.69777   -11.77333
   135   1    -3.92444   -15.69777   -11.77333
   136   2     0.00000   -15.69777   -11.77333
   137   3     3.92444   -15.69777   -11.77333
   138   1     7.84889   -15.69777   -11.77333
   139   2    11.77333   -15.69777   -11.77333
   140   1   -15.69777   -11.77333   -11.77333
   141   2   -11.77333   -11.77333   -11.77333
   142   2    -7.84889   -11.77333   -11.77333
   143   2    -3.92444   -11.77333   -11.77333
   144   2     0.00000   -11.77333   -11.77333
   145   1     3.92444   -11.77333   -11.77333
   146   2     7.84889   -11.77333   -11.77333
   147   1    11.77333   -11.77333   -11.77333
   148   1    15.69777   -11.77333   -11.77333
   149   2   -19.62221    -7.84889   -11.77333
   150   1   -15.69777    -7.84889   -11.77333
   151   2   -11.77333    -7.84889   -11.77333
   152   1    -7.84889    -7.84889   -11.77333
   153   2    -3.92444    -7.84889   -11.77333
   154   3     0.00000    -7.84889   -11.77333
   155   2     3.92444    -7.84889   -11.77333
   156   2     7.84889    -7.84889   -11.77333
   157   3    11.77333    -7.84889   -11.77333
   158   2    15.69777    -7.84889   -11.77333
   159   2    19.62221    -7.84889   -11.77333
   160   2   -19.62221    -3.92444   -11.77333
   161   2   -15.69777    -3.92444   -11.77333
   162   3   -11.77333    -3.92444   -11.77333
   163   1    -7.84889    -3.92444   -11.77333
   164   3    -3.92444    -3.92444   -11.77333
   165   1     0.00000    -3.92444   -11.77333
   166   1     3.92444    -3.92444   -11.77333
   167   1     7.84889    -3.92444   -11.77333
   168   1    11.77333    -3.92444   -11.77333
   169   3    15.69777    -3.92444   -11.77333
   170   2    19.62221    -3.92444   -11.77333
   171   2   -19.62221     0.00000   -11.77333
   172   1   -15.69777     0.00000   -11.77333
   173   2   -11.77333     0.00000   -11.77333
   174   2    -7.84889     0.00000   -11.77333
   175   3    -3.92444     0.00000   -11.77333
   176   3     0.00000     0.00000   -11.77333
   177   3     3.92444     0.00000   -11.77333
   178   2     7.84889     0.00000   -11.77333
   179   3    11.77333     0.00000   -11.77333
   180   1    15.69777     0.00000   -11.77333
   181   2    19.62221     0.00000   -11.77333
   182   1   -19.62221     3.92444   -11.77333
   183   2   -15.69777     3.92444   -11.77333
   184   2   -11.77333     3.92444   -11.77333
   185   1    -7.84889     3.92444   -11.77333
   186   3    -3.92444     3.92444   -11.77333
   187   1     0.00000     3.92444   -11.77333
   188   2     3.92444     3.92444   -11.77333
   189   2     7.84889     3.92444   -11.77333
   190   2    11.77333     3.92444   -11.77333
   191   1    15.69777     3.92444   -11.77333
   192   1    19.62221     3.92444   -11.77333
   193   2   -19.62221     7.84889   -11.77333
   194   3   -15.69777     7.84889   -11.77333
   195   2   -11.77333     7.84889   -11.77333
   196   3    -7.84889     7.84889   -11.77333
   197   3    -3.92444     7.84889   -11.77333
   198   3     0.00000     7.84889   -11.77333
   199   2     3.92444     7.84889   -11.77333
   200   3     7.84889     7.84889   -11.77333
   201   2    11.77333     7.84889   -11.77333
   202   2    15.69777     7.84889   -11.77333
   203   3    19.62221     7.84889   -11.77333
   204   2   -15.69777    11.77333   -11.77333
   205   3   -11.77333    11.77333   -11.77333
   206   1    -7.84889    11.77333   -11.77333
   207   1    -3.92444    11.77333   -11.77333
   208   3     0.00000    11.77333   -11.77333
   209   2     3.92444    11.77333   -11.77333
   210   1     7.84889    11.77333   -11.77333
   211   2    11.77333    11.77333   -11.77333
   212   1    15.69777    11.77333   -11.77333
   213   2   -11.77333    15.69777   -11.77333
   214   2    -7.84889    15.69777   -11.77333
   215   2    -3.92444    15.69777   -11.77333
   216   2     0.00000    15.69777   -11.77333
   217   3     3.92444    15.69777   -11.77333
   218   1     7.84889    15.69777   -11.77333
   219   1    11.77333    15.69777   -11.77333
   220   2    -7.84889    19.62221   -11.77333
   221   2    -3.92444    19.62221   -11.77333
   222   2     0.00000    19.62221   -11.77333
   223   2     3.92444    19.62221   -11.77333
   224   2     7.84889    19.62221   -11.77333
   225   2     0.00000   -23.54666    -7.84889
   226   2   -11.77333   -19.62221    -7.84889
   227   2    -7.84889   -19.62221    -7.84889
   228   2    -3.92444   -19.62221    -7.84889
   229   2     0.00000   -19.62221    -7.84889
   230   2     3.92444   -19.62221    -7.84889
   231   2     7.84889   -19.62221    -7.84889
   232   2    11.77333   -19.62221    -7.84889
   233   2   -15.69777   -15.69777    -7.84889
   234   2   -11.77333   -15.69777    -7.84889
   235   1    -7.84889   -15.69777    -7.84889
   236   3    -3.92444   -15.69777    -7.84889
   237   3     0.00000   -15.69777    -7.84889
   238   3     3.92444   -15.69777    -7.84889
   239   1     7.84889   -15.69777    -7.84889
   240   3    11.77333   -15.69777    -7.84889
   241   1    15.69777   -15.69777    -7.84889
   242   1   -19.62221   -11.77333    -7.84889
   243   2   -15.69777   -11.77333    -7.84889
   244   2   -11.77333   -11.77333    -7.84889
   245   1    -7.84889   -11.77333    -7.84889
   246   2    -3.92444   -11.77333    -7.84889
   247   3     0.00000   -11.77333    -7.84889
   248   2     3.92444   -11.77333    -7.84889
   249   2     7.84889   -11.77333    -7.84889
   250   2    11.77333   -11.77333    -7.84889
   251   1    15.69777   -11.77333    -7.84889
   252   1    19.62221   -11.77333    -7.84889
   253   3   -19.62221    -7.84889    -7.84889
   254   1   -15.69777    -7.84889    -7.84889
   255   3   -11.77333    -7.84889    -7.84889
   256   1    -7.84889    -7.84889    -7.84889
   257   1    -3.92444    -7.84889    -7.84889
   258   3     0.00000    -7.84889    -7.84889
   259   3     3.92444    -7.84889    -7.84889
   260   2     7.84889    -7.84889    -7.84889
   261   3    11.77333    -7.84889    -7.84889
   262   2    15.69777    -7.84889    -7.84889
   263   2    19.62221    -7.84889    -7.84889
   264   1   -19.62221    -3.92444    -7.84889
   265   3   -15.69777    -3.92444    -7.84889
   266   3   -11.77333    -3.92444    -7.84889
   267   3    -7.84889    -3.92444    -7.84889
   268   3    -3.92444    -3.92444    -7.84889
   269   3     0.00000    -3.92444    -7.84889
   270   3     3.92444    -3.92444    -7.84889
   271   3     7.84889    -3.92444    -7.84889
   272   3    11.77333    -3.92444    -7.84889
   273   1    15.69777    -3.92444    -7.84889
   274   2    19.62221    -3.92444    -7.84889
   275   2   -23.54666     0.00000    -7.84889
   276   3   -19.62221     0.00000    -7.84889
   277   1   -15.69777     0.00000    -7.84889
   278   1   -11.77333     0.00000    -7.84889
   279   2    -7.84889     0.00000    -7.84889
   280   3    -3.92444     0.00000    -7.84889
   281   1     0.00000     0.00000    -7.84889
   282   2     3.92444     0.00000    -7.84889
   283   3     7.84889     0.00000    -7.84889
   284   3    11.77333     0.00000    -7.84889
   285   2    15.69777     0.00000    -7.84889
   286   2    19.62221     0.00000    -7.84889
   287   1    23.54666     0.00000    -7.84889
   288   2   -19.62221     3.92444    -7.84889
   289   1   -15.69777     3.92444    -7.84889
   290   2   -11.77333     3.92444    -7.84889
   291   3    -7.84889     3.92444    -7.84889
   292   2    -3.92444     3.92444    -7.84889
   293   3     0.00000     3.92444    -7.84889
   294   3     3.92444     3.92444    -7.84889
   295   1     7.84889     3.92444    -7.84889
   296   2    11.77333     3.92444    -7.84889
   297   1    15.69777     3.92444    -7.84889
   298   1    19.62221     3.92444    -7.84889
   299   1   -19.62221     7.84889    -7.84889
   300   2   -15.69777     7.84889    -7.84889
   301   1   -11.77333     7.84889    -7.84889
   302   2    -7.84889     7.84889    -7.84889
   303   2    -3.92444     7.84889    -7.84889
   304   3     0.00000     7.84889    -7.84889
   305   2     3.92444     7.84889    -7.84889
   306   3     7.84889     7.84889    -7.84889
   307   3    11.77333     7.84889    -7.84889
   308   2    15.69777     7.84889    -7.84889
   309   1    19.62221     7.84889    -7.84889
   310   1   -19.62221    11.77333    -7.84889
   311   2   -15.69777    11.77333    -7.84889
   312   2   -11.77333    11.77333    -7.84889
   313   3    -7.84889    11.77333    -7.84889
   314   1    -3.92444    11.77333    -7.84889
   315   3     0.00000    11.77333    -7.84889
   316   3     3.92444    11.77333    -7.84889
   317   1     7.84889    11.77333    -7.84889
   318   3    11.77333    11.77333    -7.84889
   319   2    15.69777    11.77333    -7.84889
   320   2    19.62221    11.77333    -7.84889
   321   2   -15.69777    15.69777    -7.84889
   322   2   -11.77333    15.69777    -7.84889
   323   3    -7.84889    15.69777    -7.84889
   324   2    -3.92444    15.69777    -7.84889
   325   2     0.00000    15.69777    -7.84889
   326   3     3.92444    15.69777    -7.84889
   327   2     7.84889    15.69777    -7.84889
   328   3    11.77333    15.69777    -7.84889
   329   3    15.69777    15.69777    -7.84889
   330   2   -11.77333    19.62221    -7.84889
   331   1    -7.84889    19.62221    -7.84889
   332   2    -3.92444    19.62221    -7.84889
   333   2     0.00000    19.62221    -7.84889
   334   1     3.92444    19.62221    -7.84889
   335   1     7.84889    19.62221    -7.84889
   336   2    11.77333    19.62221    -7.84889
   337   2     0.00000    23.54666    -7.84889
   338   1    -3.92444   -23.54666    -3.92444
   339   1     0.00000   -23.54666    -3.92444
   340   1     3.92444   -23.54666    -3.92444
   341   2   -11.77333   -19.62221    -3.92444
   342   2    -7.84889   -19.62221    -3.92444
   343   2    -3.92444   -19.62221    -3.92444
   344   2     0.00000   -19.62221    -3.92444
   345   1     3.92444   -19.62221    -3.92444
   346   1     7.84889   -19.62221    -3.92444
   347   2    11.77333   -19.62221    -3.92444
   348   2   -15.69777   -15.69777    -3.92444
   349   1   -11.77333   -15.69777    -3.92444
   350   1    -7.84889   -15.69777    -3.92444
   351   2    -3.92444   -15.69777    -3.92444
   352   3     0.00000   -15.69777    -3.92444
   353   2     3.92444   -15.69777    -3.92444
   354   1     7.84889   -15.69777    -3.92444
   355   2    11.77333   -15.69777    -3.92444
   356   1    15.69777   -15.69777    -3.92444
   357   1   -19.62221   -11.77333    -3.92444
   358   2   -15.69777   -11.77333    -3.92444
   359   3   -11.77333   -11.77333    -3.92444
   360   1    -7.84889   -11.77333    -3.92444
   361   2    -3.92444   -11.77333    -3.92444
   362   3     0.00000   -11.77333    -3.92444
   363   1     3.92444   -11.77333    -3.92444
   364   2     7.84889   -11.77333    -3.92444
   365   3    11.77333   -11.77333    -3.92444
   366   3    15.69777   -11.77333    -3.92444
   367   2    19.62221   -11.77333    -3.92444
   368   2   -19.62221    -7.84889    -3.92444
   369   2   -15.69777    -7.84889    -3.92444
   370   2   -11.77333    -7.84889    -3.92444
   371   3    -7.84889    -7.84889    -3.92444
   372   3    -3.92444    -7.84889    -3.92444
   373   1     0.00000    -7.84889    -3.92444
   374   2     3.92444    -7.84889    -3.92444
   375   2     7.84889    -7.84889    -3.92444
   376   2    11.77333    -7.84889    -3.92444
   377   2    15.69777    -7.84889    -3.92444
   378   1    19.62221    -7.84889    -3.92444
   379   2   -23.54666    -3.92444    -3.92444
   380   1   -19.62221    -3.92444    -3.92444
   381   1   -15.69777    -3.92444    -3.92444
   382   1   -11.77333    -3.92444    -3.92444
   383   3    -7.84889    -3.92444    -3.92444
   384   3    -3.92444    -3.92444    -3.92444
   385   3     0.00000    -3.92444    -3.92444
   386   3     3.92444    -3.92444    -3.92444
   387   3     7.84889    -3.92444    -3.92444
   388   2    11.77333    -3.92444    -3.92444
   389   3    15.69777    -3.92444    -3.92444
   390   3    19.62221    -3.92444    -3.92444
   391   2    23.54666    -3.92444    -3.92444
   392   2   -23.54666     0.00000    -3.92444
   393   3   -19.62221     0.00000    -3.92444
   394   1   -15.69777     0.00000    -3.92444
   395   2   -11.77333     0.00000    -3.92444
   396   3    -7.84889     0.00000    -3.92444
   397   3    -3.92444     0.00000    -3.92444
   398   3     0.00000     0.00000    -3.92444
   399   1     3.92444     0.00000    -3.92444
   400   3     7.84889     0.00000    -3.92444
   401   1    11.77333     0.00000    -3.92444
   402   1    15.69777     0.00000    -3.92444
   403   1    19.62221     0.00000    -3.92444
   404   1    23.54666     0.00000    -3.92444
   405   2   -23.54666     3.92444    -3.92444
   406   2   -19.62221     3.92444    -3.92444
   407   1   -15.69777     3.92444    -3.92444
   408   2   -11.77333     3.92444    -3.92444
   409   1    -7.84889     3.92444    -3.92444
   410   3    -3.92444     3.92444    -3.92444
   411   3     0.00000     3.92444    -3.92444
   412   1     3.92444     3.92444    -3.92444
   413   3     7.84889     3.92444    -3.92444
   414   3    11.77333     3.92444    -3.92444
   415   2    15.69777     3.92444    -3.92444
   416   1    19.62221     3.92444    -3.92444
   417   2    23.54666     3.92444    -3.92444
   418   3   -19.62221     7.84889    -3.92444
   419   2   -15.69777     7.84889    -3.92444
   420   3   -11.77333     7.84889    -3.92444
   421   2    -7.84889     7.84889    -3.92444
   422   3    -3.92444     7.84889    -3.92444
   423   3     0.00000     7.84889    -3.92444
   424   3     3.92444     7.84889    -3.92444
   425   3     7.84889     7.84889    -3.92444
   426   3    11.77333     7.84889    -3.92444
   427   3    15.69777     7.84889    -3.92444
   428   2    19.62221     7.84889    -3.92444
   429   2   -19.62221    11.77333    -3.92444
   430   1   -15.69777    11.77333    -3.92444
   431   2   -11.77333    11.77333    -3.92444
   432   1    -7.84889    11.77333    -3.92444
   433   3    -3.92444    11.77333    -3.92444
   434   3     0.00000    11.77333    -3.92444
   435   1     3.92444    11.77333    -3.92444
   436   3     7.84889    11.77333    -3.92444
   437   1    11.77333    11.77333    -3.92444
   438   3    15.69777    11.77333    -3.92444
   439   2    19.62221    11.77333    -3.92444
   440   1   -15.69777    15.69777    -3.92444
   441   3   -11.77333    15.69777    -3.92444
   442   2    -7.84889    15.69777    -3.92444
   443   3    -3.92444    15.69777    -3.92444
   444   3     0.00000    15.69777    -3.92444
   445   3     3.92444    15.69777    -3.92444
   446   1     7.84889    15.69777    -3.92444
   447   2    11.77333    15.69777    -3.92444
   448   2    15.69777    15.69777    -3.92444
   449   3   -11.77333    19.62221    -3.92444
   450   1    -7.84889    19.62221    -3.92444
   451   2    -3.92444    19.62221    -3.92444
   452   3     0.00000    19.62221    -3.92444
   453   1     3.92444    19.62221    -3.92444
   454   2     7.84889    19.62221    -3.92444
   455   1    11.77333    19.62221    -3.92444
   456   1    -3.92444    23.54666    -3.92444
   457   2     0.00000    23.54666    -3.92444
   458   2     3.92444    23.54666    -3.92444
   459   2    -7.84889   -23.54666     0.00000
   460   3    -3.92444   -23.54666     0.00000
   461   1     0.00000   -23.54666     0.00000
   462   1     3.92444   -23.54666     0.00000
   463   2     7.84889   -23.54666     0.00000
   464   2   -11.77333   -19.62221     0.00000
   465   2    -7.84889   -19.62221     0.00000
   466   3    -3.92444   -19.62221     0.00000
   467   2     0.00000   -19.62221     0.00000
   468   2     3.92444   -19.62221     0.00000
   469   2     7.84889   -19.62221     0.00000
   470   1    11.77333   -19.62221     0.00000
   471   1   -15.69777   -15.69777     0.00000
   472   3   -11.77333   -15.69777     0.00000
   473   2    -7.84889   -15.69777     0.00000
   474   3    -3.92444   -15.69777     0.00000
   475   2     0.00000   -15.69777     0.00000
   476   3     3.92444   -15.69777     0.00000
   477   2     7.84889   -15.69777     0.00000
   478   1    11.77333   -15.69777     0.00000
   479   2    15.69777   -15.69777     0.00000
   480   2   -19.62221   -11.77333     0.00000
   481   2   -15.69777   -11.77333     0.00000
   482   2   -11.77333   -11.77333     0.00000
   483   3    -7.84889   -11.77333     0.00000
   484   3    -3.92444   -11.77333     0.00000
   485   3     0.00000   -11.77333     0.00000
   486   3     3.92444   -11.77333     0.00000
   487   2     7.84889   -11.77333     0.00000
   488   2    11.77333   -11.77333     0.00000
   489   1    15.69777   -11.77333     0.00000
   490   2    19.62221   -11.77333     0.00000
   491   2   -23.54666    -7.84889     0.00000
   492   3   -19.62221    -7.84889     0.00000
   493   2   -15.69777    -7.84889     0.00000
   494   3   -11.77333    -7.84889     0.00000
   495   2    -7.84889    -7.84889     0.00000
   496   3    -3.92444    -7.84889     0.00000
   497   3     0.00000    -7.84889     0.00000
   498   3     3.92444    -7.84889     0.00000
   499   3     7.84889    -7.84889     0.00000
   500   2    11.77333    -7.84889     0.00000
   501   3    15.69777    -7.84889     0.00000
   502   2    19.62221    -7.84889     0.00000
   503   1    23.54666    -7.84889     0.00000
   504   1   -23.54666    -3.92444     0.00000
   505   1   -19.62221    -3.92444     0.00000
   506   2   -15.69777    -3.92444     0.00000
   507   3   -11.77333    -3.92444     0.00000
   508   3    -7.84889    -3.92444     0.00000
   509   3    -3.92444    -3.92444     0.00000
   510   3     0.00000    -3.92444     0.00000
   511   3     3.92444    -3.92444     0.00000
   512   3     7.84889    -3.92444     0.00000
   513   3    11.77333    -3.92444     0.00000
   514   3    15.69777    -3.92444     0.00000
   515   1    19.62221    -3.92444     0.00000
   516   1    23.54666    -3.92444     0.00000
   517   2   -23.54666     0.00000     0.00000
   518   3   -19.62221     0.00000     0.00000
   519   2   -15.69777     0.00000     0.00000
   520   3   -11.77333     0.00000     0.00000
   521   3    -7.84889     0.00000     0.00000
   522   3    -3.92444     0.00000     0.00000
   523   3     0.00000     0.00000     0.00000
   524   1     3.92444     0.00000     0.00000
   525   1     7.84889     0.00000     0.00000
   526   1    11.77333     0.00000     0.00000
   527   1    15.69777     0.00000     0.00000
   528   1    19.62221     0.00000     0.00000
   529   1    23.54666     0.00000     0.00000
   530   3   -23.54666     3.92444     0.00000
   531   3   -19.62221     3.92444     0.00000
   532   3   -15.69777     3.92444     0.00000
   533   3   -11.77333     3.92444     0.00000
   534   3    -7.84889     3.92444     0.00000
   535   3    -3.92444     3.92444     0.00000
   536   3     0.00000     3.92444     0.00000
   537   3     3.92444     3.92444     0.00000
   538   3     7.84889     3.92444     0.00000
   539   3    11.77333     3.92444     0.00000
   540   1    15.69777     3.92444     0.00000
   541   2    19.62221     3.92444     0.00000
   542   1    23.54666     3.92444     0.00000
   543   2   -23.54666     7.84889     0.00000
   544   3   -19.62221     7.84889     0.00000
   545   2   -15.69777     7.84889     0.00000
   546   3   -11.77333     7.84889     0.00000
   547   1    -7.84889     7.84889     0.00000
   548   3    -3.92444     7.84889     0.00000
   549   3     0.00000     7.84889     0.00000
   550   3     3.92444     7.84889     0.00000
   551   3     7.84889     7.84889     0.00000
   552   3    11.77333     7.84889     0.00000
   553   2    15.69777     7.84889     0.00000
   554   2    19.62221     7.84889     0.00000
   555   2    23.54666     7.84889     0.00000
   556   2   -19.62221    11.77333     0.00000
   557   3   -15.69777    11.77333     0.00000
   558   2   -11.77333    11.77333     0.00000
   559   3    -7.84889    11.77333     0.00000
   560   3    -3.92444    11.77333     0.00000
   561   3     0.00000    11.77333     0.00000
   562   3     3.92444    11.77333     0.00000
   563   3     7.84889    11.77333     0.00000
   564   2    11.77333    11.77333     0.00000
   565   2    15.69777    11.77333     0.00000
   566   1    19.62221    11.77333     0.00000
   567   2   -15.69777    15.69777     0.00000
   568   2   -11.77333    15.69777     0.00000
   569   2    -7.84889    15.69777     0.00000
   570   3    -3.92444    15.69777     0.00000
   571   1     0.00000    15.69777     0.00000
   572   3     3.92444    15.69777     0.00000
   573   2     7.84889    15.69777     0.00000
   574   2    11.77333    15.69777     0.00000
   575   2    15.69777    15.69777     0.00000
   576   1   -11.77333    19.62221     0.00000
   577   2    -7.84889    19.62221     0.00000
   578   1    -3.92444    19.62221     0.00000
   579   1     0.00000    19.62221     0.00000
   580   2     3.92444    19.62221     0.00000
   581   1     7.84889    19.62221     0.00000
   582   1    11.77333    19.62221     0.00000
   583   2    -7.84889    23.54666     0.00000
   584   2    -3.92444    23.54666     0.00000
   585   1     0.00000    23.54666     0.00000
   586   2     3.92444    23.54666     0.00000
   587   2     7.84889    23.54666     0.00000
   588   2    -3.92444   -23.54666     3.92444
   589   2     0.00000   -23.54666     3.92444
   590   1     3.92444   -23.54666     3.92444
   591   1   -11.77333   -19.62221     3.92444
   592   2    -7.84889   -19.62221     3.92444
   593   3    -3.92444   -19.62221     3.92444
   594   2     0.00000   -19.62221     3.92444
   595   3     3.92444   -19.62221     3.92444
   596   1     7.84889   -19.62221     3.92444
   597   2    11.77333   -19.62221     3.92444
   598   2   -15.69777   -15.69777     3.92444
   599   2   -11.77333   -15.69777     3.92444
   600   3    -7.84889   -15.69777     3.92444
   601   2    -3.92444   -15.69777     3.92444
   602   3     0.00000   -15.69777     3.92444
   603   1     3.92444   -15.69777     3.92444
   604   3     7.84889   -15.69777     3.92444
   605   2    11.77333   -15.69777     3.92444
   606   1    15.69777   -15.69777     3.92444
   607   1   -19.62221   -11.77333     3.92444
   608   3   -15.69777   -11.77333     3.92444
   609   2   -11.77333   -11.77333     3.92444
   610   3    -7.84889   -11.77333     3.92444
   611   3    -3.92444   -11.77333     3.92444
   612   3     0.00000   -11.77333     3.92444
   613   3     3.92444   -11.77333     3.92444
   614   2     7.84889   -11.77333     3.92444
   615   2    11.77333   -11.77333     3.92444
   616   2    15.69777   -11.77333     3.92444
   617   1    19.62221   -11.77333     3.92444
   618   2   -19.62221    -7.84889     3.92444
   619   3   -15.69777    -7.84889     3.92444
   620   2   -11.77333    -7.84889     3.92444
   621   3    -7.84889    -7.84889     3.92444
   622   3    -3.92444    -7.84889     3.92444
   623   3     0.00000    -7.84889     3.92444
   624   3     3.92444    -7.84889     3.92444
   625   2     7.84889    -7.84889     3.92444
   626   2    11.77333    -7.84889     3.92444
   627   2    15.69777    -7.84889     3.92444
   628   3    19.62221    -7.84889     3.92444
   629   1   -23.54666    -3.92444     3.92444
   630   2   -19.62221    -3.92444     3.92444
   631   3   -15.69777    -3.92444     3.92444
   632   2   -11.77333    -3.92444     3.92444
   633   3    -7.84889    -3.92444     3.92444
   634   3    -3.92444    -3.92444     3.92444