LAMMPS DATA FOR MEAM SIMULATION

    976   atoms
      2   atom types

  -23.74   23.74   xlo xhi
  -23.74   23.74   ylo yhi
  -23.74   23.74   zlo zhi

 Atoms

     1   1    -1.96222    -5.88666   -13.73555
     2   1     1.96222    -5.88666   -13.73555
     3   1    -5.88666    -1.96222   -13.73555
     4   1    -1.96222    -1.96222   -13.73555
     5   1     1.96222    -1.96222   -13.73555
     6   1     5.88666    -1.96222   -13.73555
     7   1    -5.88666     1.96222   -13.73555
     8   1    -1.96222     1.96222   -13.73555
     9   1     1.96222     1.96222   -13.73555
    10   1     5.88666     1.96222   -13.73555
    11   1    -1.96222     5.88666   -13.73555
    12   1     1.96222     5.88666   -13.73555
    13   1    -5.88666    -9.81111    -9.81111
    14   1    -1.96222    -9.81111    -9.81111
    15   1     1.96222    -9.81111    -9.81111
    16   1     5.88666    -9.81111    -9.81111
    17   1    -9.81111    -5.88666    -9.81111
    18   2    -5.88666    -5.88666    -9.81111
    19   2    -1.96222    -5.88666    -9.81111
    20   2     1.96222    -5.88666    -9.81111
    21   2     5.88666    -5.88666    -9.81111
    22   1     9.81111    -5.88666    -9.81111
    23   1    -9.81111    -1.96222    -9.81111
    24   2    -5.88666    -1.96222    -9.81111
    25   2    -1.96222    -1.96222    -9.81111
    26   2     1.96222    -1.96222    -9.81111
    27   2     5.88666    -1.96222    -9.81111
    28   1     9.81111    -1.96222    -9.81111
    29   1    -9.81111     1.96222    -9.81111
    30   2    -5.88666     1.96222    -9.81111
    31   2    -1.96222     1.96222    -9.81111
    32   2     1.96222     1.96222    -9.81111
    33   2     5.88666     1.96222    -9.81111
    34   1     9.81111     1.96222    -9.81111
    35   1    -9.81111     5.88666    -9.81111
    36   2    -5.88666     5.88666    -9.81111
    37   2    -1.96222     5.88666    -9.81111
    38   2     1.96222     5.88666    -9.81111
    39   2     5.88666     5.88666    -9.81111
    40   1     9.81111     5.88666    -9.81111
    41   1    -5.88666     9.81111    -9.81111
    42   1    -1.96222     9.81111    -9.81111
    43   1     1.96222     9.81111    -9.81111
    44   1     5.88666     9.81111    -9.81111
    45   1    -1.96222   -13.73555    -5.88666
    46   1     1.96222   -13.73555    -5.88666
    47   1    -9.81111    -9.81111    -5.88666
    48   2    -5.88666    -9.81111    -5.88666
    49   2    -1.96222    -9.81111    -5.88666
    50   2     1.96222    -9.81111    -5.88666
    51   2     5.88666    -9.81111    -5.88666
    52   1     9.81111    -9.81111    -5.88666
    53   2    -9.81111    -5.88666    -5.88666
    54   2    -5.88666    -5.88666    -5.88666
    55   2    -1.96222    -5.88666    -5.88666
    56   2     1.96222    -5.88666    -5.88666
    57   2     5.88666    -5.88666    -5.88666
    58   2     9.81111    -5.88666    -5.88666
    59   1   -13.73555    -1.96222    -5.88666
    60   2    -9.81111    -1.96222    -5.88666
    61   2    -5.88666    -1.96222    -5.88666
    62   2    -1.96222    -1.96222    -5.88666
    63   2     1.96222    -1.96222    -5.88666
    64   2     5.88666    -1.96222    -5.88666
    65   2     9.81111    -1.96222    -5.88666
    66   1    13.73555    -1.96222    -5.88666
    67   1   -13.73555     1.96222    -5.88666
    68   2    -9.81111     1.96222    -5.88666
    69   2    -5.88666     1.96222    -5.88666
    70   2    -1.96222     1.96222    -5.88666
    71   2     1.96222     1.96222    -5.88666
    72   2     5.88666     1.96222    -5.88666
    73   2     9.81111     1.96222    -5.88666
    74   1    13.73555     1.96222    -5.88666
    75   2    -9.81111     5.88666    -5.88666
    76   2    -5.88666     5.88666    -5.88666
    77   2    -1.96222     5.88666    -5.88666
    78   2     1.96222     5.88666    -5.88666
    79   2     5.88666     5.88666    -5.88666
    80   2     9.81111     5.88666    -5.88666
    81   1    -9.81111     9.81111    -5.88666
    82   2    -5.88666     9.81111    -5.88666
    83   2    -1.96222     9.81111    -5.88666
    84   2     1.96222     9.81111    -5.88666
    85   2     5.88666     9.81111    -5.88666
    86   1     9.81111     9.81111    -5.88666
    87   1    -1.96222    13.73555    -5.88666
    88   1     1.96222    13.73555    -5.88666
    89   1    -5.88666   -13.73555    -1.96222
    90   1    -1.96222   -13.73555    -1.96222
    91   1     1.96222   -13.73555    -1.96222
    92   1     5.88666   -13.73555    -1.96222
    93   1    -9.81111    -9.81111    -1.96222
    94   2    -5.88666    -9.81111    -1.96222
    95   2    -1.96222    -9.81111    -1.96222
    96   2     1.96222    -9.81111    -1.96222
    97   2     5.88666    -9.81111    -1.96222
    98   1     9.81111    -9.81111    -1.96222
    99   1   -13.73555    -5.88666    -1.96222
   100   2    -9.81111    -5.88666    -1.96222
   101   2    -5.88666    -5.88666    -1.96222
   102   2    -1.96222    -5.88666    -1.96222
   103   2     1.96222    -5.88666    -1.96222
   104   2     5.88666    -5.88666    -1.96222
   105   2     9.81111    -5.88666    -1.96222
   106   1    13.73555    -5.88666    -1.96222
   107   1   -13.73555    -1.96222    -1.96222
   108   2    -9.81111    -1.96222    -1.96222
   109   2    -5.88666    -1.96222    -1.96222
   110   2    -1.96222    -1.96222    -1.96222
   111   2     1.96222    -1.96222    -1.96222
   112   2     5.88666    -1.96222    -1.96222
   113   2     9.81111    -1.96222    -1.96222
   114   1    13.73555    -1.96222    -1.96222
   115   1   -13.73555     1.96222    -1.96222
   116   2    -9.81111     1.96222    -1.96222
   117   2    -5.88666     1.96222    -1.96222
   118   2    -1.96222     1.96222    -1.96222
   119   2     1.96222     1.96222    -1.96222
   120   2     5.88666     1.96222    -1.96222
   121   2     9.81111     1.96222    -1.96222
   122   1    13.73555     1.96222    -1.96222
   123   1   -13.73555     5.88666    -1.96222
   124   2    -9.81111     5.88666    -1.96222
   125   2    -5.88666     5.88666    -1.96222
   126   2    -1.96222     5.88666    -1.96222
   127   2     1.96222     5.88666    -1.96222
   128   2     5.88666     5.88666    -1.96222
   129   2     9.81111     5.88666    -1.96222
   130   1    13.73555     5.88666    -1.96222
   131   1    -9.81111     9.81111    -1.96222
   132   2    -5.88666     9.81111    -1.96222
   133   2    -1.96222     9.81111    -1.96222
   134   2     1.96222     9.81111    -1.96222
   135   2     5.88666     9.81111    -1.96222
   136   1     9.81111     9.81111    -1.96222
   137   1    -5.88666    13.73555    -1.96222
   138   1    -1.96222    13.73555    -1.96222
   139   1     1.96222    13.73555    -1.96222
   140   1     5.88666    13.73555    -1.96222
   141   1    -5.88666   -13.73555     1.96222
   142   1    -1.96222   -13.73555     1.96222
   143   1     1.96222   -13.73555     1.96222
   144   1     5.88666   -13.73555     1.96222
   145   1    -9.81111    -9.81111     1.96222
   146   2    -5.88666    -9.81111     1.96222
   147   2    -1.96222    -9.81111     1.96222
   148   2     1.96222    -9.81111     1.96222
   149   2     5.88666    -9.81111     1.96222
   150   1     9.81111    -9.81111     1.96222
   151   1   -13.73555    -5.88666     1.96222
   152   2    -9.81111    -5.88666     1.96222
   153   2    -5.88666    -5.88666     1.96222
   154   2    -1.96222    -5.88666     1.96222
   155   2     1.96222    -5.88666     1.96222
   156   2     5.88666    -5.88666     1.96222
   157   2     9.81111    -5.88666     1.96222
   158   1    13.73555    -5.88666     1.96222
   159   1   -13.73555    -1.96222     1.96222
   160   2    -9.81111    -1.96222     1.96222
   161   2    -5.88666    -1.96222     1.96222
   162   2    -1.96222    -1.96222     1.96222
   163   2     1.96222    -1.96222     1.96222
   164   2     5.88666    -1.96222     1.96222
   165   2     9.81111    -1.96222     1.96222
   166   1    13.73555    -1.96222     1.96222
   167   1   -13.73555     1.96222     1.96222
   168   2    -9.81111     1.96222     1.96222
   169   2    -5.88666     1.96222     1.96222
   170   2    -1.96222     1.96222     1.96222
   171   2     1.96222     1.96222     1.96222
   172   2     5.88666     1.96222     1.96222
   173   2     9.81111     1.96222     1.96222
   174   1    13.73555     1.96222     1.96222
   175   1   -13.73555     5.88666     1.96222
   176   2    -9.81111     5.88666     1.96222
   177   2    -5.88666     5.88666     1.96222
   178   2    -1.96222     5.88666     1.96222
   179   2     1.96222     5.88666     1.96222
   180   2     5.88666     5.88666     1.96222
   181   2     9.81111     5.88666     1.96222
   182   1    13.73555     5.88666     1.96222
   183   1    -9.81111     9.81111     1.96222
   184   2    -5.88666     9.81111     1.96222
   185   2    -1.96222     9.81111     1.96222
   186   2     1.96222     9.81111     1.96222
   187   2     5.88666     9.81111     1.96222
   188   1     9.81111     9.81111     1.96222
   189   1    -5.88666    13.73555     1.96222
   190   1    -1.96222    13.73555     1.96222
   191   1     1.96222    13.73555     1.96222
   192   1     5.88666    13.73555     1.96222
   193   1    -1.96222   -13.73555     5.88666
   194   1     1.96222   -13.73555     5.88666
   195   1    -9.81111    -9.81111     5.88666
   196   2    -5.88666    -9.81111     5.88666
   197   2    -1.96222    -9.81111     5.88666
   198   2     1.96222    -9.81111     5.88666
   199   2     5.88666    -9.81111     5.88666
   200   1     9.81111    -9.81111     5.88666
   201   2    -9.81111    -5.88666     5.88666
   202   2    -5.88666    -5.88666     5.88666
   203   2    -1.96222    -5.88666     5.88666
   204   2     1.96222    -5.88666     5.88666
   205   2     5.88666    -5.88666     5.88666
   206   2     9.81111    -5.88666     5.88666
   207   1   -13.73555    -1.96222     5.88666
   208   2    -9.81111    -1.96222     5.88666
   209   2    -5.88666    -1.96222     5.88666
   210   2    -1.96222    -1.96222     5.88666
   211   2     1.96222    -1.96222     5.88666
   212   2     5.88666    -1.96222     5.88666
   213   2     9.81111    -1.96222     5.88666
   214   1    13.73555    -1.96222     5.88666
   215   1   -13.73555     1.96222     5.88666
   216   2    -9.81111     1.96222     5.88666
   217   2    -5.88666     1.96222     5.88666
   218   2    -1.96222     1.96222     5.88666
   219   2     1.96222     1.96222     5.88666
   220   2     5.88666     1.96222     5.88666
   221   2     9.81111     1.96222     5.88666
   222   1    13.73555     1.96222     5.88666
   223   2    -9.81111     5.88666     5.88666
   224   2    -5.88666     5.88666     5.88666
   225   2    -1.96222     5.88666     5.88666
   226   2     1.96222     5.88666     5.88666
   227   2     5.88666     5.88666     5.88666
   228   2     9.81111     5.88666     5.88666
   229   1    -9.81111     9.81111     5.88666
   230   2    -5.88666     9.81111     5.88666
   231   2    -1.96222     9.81111     5.88666
   232   2     1.96222     9.81111     5.88666
   233   2     5.88666     9.81111     5.88666
   234   1     9.81111     9.81111     5.88666
   235   1    -1.96222    13.73555     5.88666
   236   1     1.96222    13.73555     5.88666
   237   1    -5.88666    -9.81111     9.81111
   238   1    -1.96222    -9.81111     9.81111
   239   1     1.96222    -9.81111     9.81111
   240   1     5.88666    -9.81111     9.81111
   241   1    -9.81111    -5.88666     9.81111
   242   2    -5.88666    -5.88666     9.81111
   243   2    -1.96222    -5.88666     9.81111
   244   2     1.96222    -5.88666     9.81111
   245   2     5.88666    -5.88666     9.81111
   246   1     9.81111    -5.88666     9.81111
   247   1    -9.81111    -1.96222     9.81111
   248   2    -5.88666    -1.96222     9.81111
   249   2    -1.96222    -1.96222     9.81111
   250   2     1.96222    -1.96222     9.81111
   251   2     5.88666    -1.96222     9.81111
   252   1     9.81111    -1.96222     9.81111
   253   1    -9.81111     1.96222     9.81111
   254   2    -5.88666     1.96222     9.81111
   255   2    -1.96222     1.96222     9.81111
   256   2     1.96222     1.96222     9.81111
   257   2     5.88666     1.96222     9.81111
   258   1     9.81111     1.96222     9.81111
   259   1    -9.81111     5.88666     9.81111
   260   2    -5.88666     5.88666     9.81111
   261   2    -1.96222     5.88666     9.81111
   262   2     1.96222     5.88666     9.81111
   263   2     5.88666     5.88666     9.81111
   264   1     9.81111     5.88666     9.81111
   265   1    -5.88666     9.81111     9.81111
   266   1    -1.96222     9.81111     9.81111
   267   1     1.96222     9.81111     9.81111
   268   1     5.88666     9.81111     9.81111
   269   1    -1.96222    -5.88666    13.73555
   270   1     1.96222    -5.88666    13.73555
   271   1    -5.88666    -1.96222    13.73555
   272   1    -1.96222    -1.96222    13.73555
   273   1     1.96222    -1.96222    13.73555
   274   1     5.88666    -1.96222    13.73555
   275   1    -5.88666     1.96222    13.73555
   276   1    -1.96222     1.96222    13.73555
   277   1     1.96222     1.96222    13.73555
   278   1     5.88666     1.96222    13.73555
   279   1    -1.96222     5.88666    13.73555
   280   1     1.96222     5.88666    13.73555
   281   1    -3.92444    -3.92444   -13.73555
   282   1     0.00000    -3.92444   -13.73555
   283   1     3.92444    -3.92444   -13.73555
   284   1    -3.92444     0.00000   -13.73555
   285   1     0.00000     0.00000   -13.73555
   286   1     3.92444     0.00000   -13.73555
   287   1    -3.92444     3.92444   -13.73555
   288   1     0.00000     3.92444   -13.73555
   289   1     3.92444     3.92444   -13.73555
   290   1    -7.84889    -7.84889    -9.81111
   291   1    -3.92444    -7.84889    -9.81111
   292   2     0.00000    -7.84889    -9.81111
   293   1     3.92444    -7.84889    -9.81111
   294   1     7.84889    -7.84889    -9.81111
   295   1    -7.84889    -3.92444    -9.81111
   296   2    -3.92444    -3.92444    -9.81111
   297   2     0.00000    -3.92444    -9.81111
   298   2     3.92444    -3.92444    -9.81111
   299   1     7.84889    -3.92444    -9.81111
   300   2    -7.84889     0.00000    -9.81111
   301   2    -3.92444     0.00000    -9.81111
   302   2     0.00000     0.00000    -9.81111
   303   2     3.92444     0.00000    -9.81111
   304   2     7.84889     0.00000    -9.81111
   305   1    -7.84889     3.92444    -9.81111
   306   2    -3.92444     3.92444    -9.81111
   307   2     0.00000     3.92444    -9.81111
   308   2     3.92444     3.92444    -9.81111
   309   1     7.84889     3.92444    -9.81111
   310   1    -7.84889     7.84889    -9.81111
   311   1    -3.92444     7.84889    -9.81111
   312   2     0.00000     7.84889    -9.81111
   313   1     3.92444     7.84889    -9.81111
   314   1     7.84889     7.84889    -9.81111
   315   1    -3.92444   -11.77333    -5.88666
   316   1     0.00000   -11.77333    -5.88666
   317   1     3.92444   -11.77333    -5.88666
   318   2    -7.84889    -7.84889    -5.88666
   319   2    -3.92444    -7.84889    -5.88666
   320   2     0.00000    -7.84889    -5.88666
   321   2     3.92444    -7.84889    -5.88666
   322   2     7.84889    -7.84889    -5.88666
   323   1   -11.77333    -3.92444    -5.88666
   324   2    -7.84889    -3.92444    -5.88666
   325   2    -3.92444    -3.92444    -5.88666
   326   2     0.00000    -3.92444    -5.88666
   327   2     3.92444    -3.92444    -5.88666
   328   2     7.84889    -3.92444    -5.88666
   329   1    11.77333    -3.92444    -5.88666
   330   1   -11.77333     0.00000    -5.88666
   331   2    -7.84889     0.00000    -5.88666
   332   2    -3.92444     0.00000    -5.88666
   333   2     0.00000     0.00000    -5.88666
   334   2     3.92444     0.00000    -5.88666
   335   2     7.84889     0.00000    -5.88666
   336   1    11.77333     0.00000    -5.88666
   337   1   -11.77333     3.92444    -5.88666
   338   2    -7.84889     3.92444    -5.88666
   339   2    -3.92444     3.92444    -5.88666
   340   2     0.00000     3.92444    -5.88666
   341   2     3.92444     3.92444    -5.88666
   342   2     7.84889     3.92444    -5.88666
   343   1    11.77333     3.92444    -5.88666
   344   2    -7.84889     7.84889    -5.88666
   345   2    -3.92444     7.84889    -5.88666
   346   2     0.00000     7.84889    -5.88666
   347   2     3.92444     7.84889    -5.88666
   348   2     7.84889     7.84889    -5.88666
   349   1    -3.92444    11.77333    -5.88666
   350   1     0.00000    11.77333    -5.88666
   351   1     3.92444    11.77333    -5.88666
   352   1    -7.84889   -11.77333    -1.96222
   353   2    -3.92444   -11.77333    -1.96222
   354   2     0.00000   -11.77333    -1.96222
   355   2     3.92444   -11.77333    -1.96222
   356   1     7.84889   -11.77333    -1.96222
   357   1   -11.77333    -7.84889    -1.96222
   358   2    -7.84889    -7.84889    -1.96222
   359   2    -3.92444    -7.84889    -1.96222
   360   2     0.00000    -7.84889    -1.96222
   361   2     3.92444    -7.84889    -1.96222
   362   2     7.84889    -7.84889    -1.96222
   363   1    11.77333    -7.84889    -1.96222
   364   2   -11.77333    -3.92444    -1.96222
   365   2    -7.84889    -3.92444    -1.96222
   366   2    -3.92444    -3.92444    -1.96222
   367   2     0.00000    -3.92444    -1.96222
   368   2     3.92444    -3.92444    -1.96222
   369   2     7.84889    -3.92444    -1.96222
   370   2    11.77333    -3.92444    -1.96222
   371   2   -11.77333     0.00000    -1.96222
   372   2    -7.84889     0.00000    -1.96222
   373   2    -3.92444     0.00000    -1.96222
   374   2     0.00000     0.00000    -1.96222
   375   2     3.92444     0.00000    -1.96222
   376   2     7.84889     0.00000    -1.96222
   377   2    11.77333     0.00000    -1.96222
   378   2   -11.77333     3.92444    -1.96222
   379   2    -7.84889     3.92444    -1.96222
   380   2    -3.92444     3.92444    -1.96222
   381   2     0.00000     3.92444    -1.96222
   382   2     3.92444     3.92444    -1.96222
   383   2     7.84889     3.92444    -1.96222
   384   2    11.77333     3.92444    -1.96222
   385   1   -11.77333     7.84889    -1.96222
   386   2    -7.84889     7.84889    -1.96222
   387   2    -3.92444     7.84889    -1.96222
   388   2     0.00000     7.84889    -1.96222
   389   2     3.92444     7.84889    -1.96222
   390   2     7.84889     7.84889    -1.96222
   391   1    11.77333     7.84889    -1.96222
   392   1    -7.84889    11.77333    -1.96222
   393   2    -3.92444    11.77333    -1.96222
   394   2     0.00000    11.77333    -1.96222
   395   2     3.92444    11.77333    -1.96222
   396   1     7.84889    11.77333    -1.96222
   397   1    -7.84889   -11.77333     1.96222
   398   2    -3.92444   -11.77333     1.96222
   399   2     0.00000   -11.77333     1.96222
   400   2     3.92444   -11.77333     1.96222
   401   1     7.84889   -11.77333     1.96222
   402   1   -11.77333    -7.84889     1.96222
   403   2    -7.84889    -7.84889     1.96222
   404   2    -3.92444    -7.84889     1.96222
   405   2     0.00000    -7.84889     1.96222
   406   2     3.92444    -7.84889     1.96222
   407   2     7.84889    -7.84889     1.96222
   408   1    11.77333    -7.84889     1.96222
   409   2   -11.77333    -3.92444     1.96222
   410   2    -7.84889    -3.92444     1.96222
   411   2    -3.92444    -3.92444     1.96222
   412   2     0.00000    -3.92444     1.96222
   413   2     3.92444    -3.92444     1.96222
   414   2     7.84889    -3.92444     1.96222
   415   2    11.77333    -3.92444     1.96222
   416   2   -11.77333     0.00000     1.96222
   417   2    -7.84889     0.00000     1.96222
   418   2    -3.92444     0.00000     1.96222
   419   2     0.00000     0.00000     1.96222
   420   2     3.92444     0.00000     1.96222
   421   2     7.84889     0.00000     1.96222
   422   2    11.77333     0.00000     1.96222
   423   2   -11.77333     3.92444     1.96222
   424   2    -7.84889     3.92444     1.96222
   425   2    -3.92444     3.92444     1.96222
   426   2     0.00000     3.92444     1.96222
   427   2     3.92444     3.92444     1.96222
   428   2     7.84889     3.92444     1.96222
   429   2    11.77333     3.92444     1.96222
   430   1   -11.77333     7.84889     1.96222
   431   2    -7.84889     7.84889     1.96222
   432   2    -3.92444     7.84889     1.96222
   433   2     0.00000     7.84889     1.96222
   434   2     3.92444     7.84889     1.96222
   435   2     7.84889     7.84889     1.96222
   436   1    11.77333     7.84889     1.96222
   437   1    -7.84889    11.77333     1.96222
   438   2    -3.92444    11.77333     1.96222
   439   2     0.00000    11.77333     1.96222
   440   2     3.92444    11.77333     1.96222
   441   1     7.84889    11.77333     1.96222
   442   1    -3.92444   -11.77333     5.88666
   443   1     0.00000   -11.77333     5.88666
   444   1     3.92444   -11.77333     5.88666
   445   2    -7.84889    -7.84889     5.88666
   446   2    -3.92444    -7.84889     5.88666
   447   2     0.00000    -7.84889     5.88666
   448   2     3.92444    -7.84889     5.88666
   449   2     7.84889    -7.84889     5.88666
   450   1   -11.77333    -3.92444     5.88666
   451   2    -7.84889    -3.92444     5.88666
   452   2    -3.92444    -3.92444     5.88666
   453   2     0.00000    -3.92444     5.88666
   454   2     3.92444    -3.92444     5.88666
   455   2     7.84889    -3.92444     5.88666
   456   1    11.77333    -3.92444     5.88666
   457   1   -11.77333     0.00000     5.88666
   458   2    -7.84889     0.00000     5.88666
   459   2    -3.92444     0.00000     5.88666
   460   2     0.00000     0.00000     5.88666
   461   2     3.92444     0.00000     5.88666
   462   2     7.84889     0.00000     5.88666
   463   1    11.77333     0.00000     5.88666
   464   1   -11.77333     3.92444     5.88666
   465   2    -7.84889     3.92444     5.88666
   466   2    -3.92444     3.92444     5.88666
   467   2     0.00000     3.92444     5.88666
   468   2     3.92444     3.92444     5.88666
   469   2     7.84889     3.92444     5.88666
   470   1    11.77333     3.92444     5.88666
   471   2    -7.84889     7.84889     5.88666
   472   2    -3.92444     7.84889     5.88666
   473   2     0.00000     7.84889     5.88666
   474   2     3.92444     7.84889     5.88666
   475   2     7.84889     7.84889     5.88666
   476   1    -3.92444    11.77333     5.88666
   477   1     0.00000    11.77333     5.88666
   478   1     3.92444    11.77333     5.88666
   479   1    -7.84889    -7.84889     9.81111
   480   1    -3.92444    -7.84889     9.81111
   481   2     0.00000    -7.84889     9.81111
   482   1     3.92444    -7.84889     9.81111
   483   1     7.84889    -7.84889     9.81111
   484   1    -7.84889    -3.92444     9.81111
   485   2    -3.92444    -3.92444     9.81111
   486   2     0.00000    -3.92444     9.81111
   487   2     3.92444    -3.92444     9.81111
   488   1     7.84889    -3.92444     9.81111
   489   2    -7.84889     0.00000     9.81111
   490   2    -3.92444     0.00000     9.81111
   491   2     0.00000     0.00000     9.81111
   492   2     3.92444     0.00000     9.81111
   493   2     7.84889     0.00000     9.81111
   494   1    -7.84889     3.92444     9.81111
   495   2    -3.92444     3.92444     9.81111
   496   2     0.00000     3.92444     9.81111
   497   2     3.92444     3.92444     9.81111
   498   1     7.84889     3.92444     9.81111
   499   1    -7.84889     7.84889     9.81111
   500   1    -3.92444     7.84889     9.81111
   501   2     0.00000     7.84889     9.81111
   502   1     3.92444     7.84889     9.81111
   503   1     7.84889     7.84889     9.81111
   504   1    -3.92444    -3.92444    13.73555
   505   1     0.00000    -3.92444    13.73555
   506   1     3.92444    -3.92444    13.73555
   507   1    -3.92444     0.00000    13.73555
   508   1     0.00000     0.00000    13.73555
   509   1     3.92444     0.00000    13.73555
   510   1    -3.92444     3.92444    13.73555
   511   1     0.00000     3.92444    13.73555
   512   1     3.92444     3.92444    13.73555
   513   1    -3.92444   -13.73555    -3.92444
   514   1     0.00000   -13.73555    -3.92444
   515   1     3.92444   -13.73555    -3.92444
   516   1    -3.92444   -13.73555     0.00000
   517   1     0.00000   -13.73555     0.00000
   518   1     3.92444   -13.73555     0.00000
   519   1    -3.92444   -13.73555     3.92444
   520   1     0.00000   -13.73555     3.92444
   521   1     3.92444   -13.73555     3.92444
   522   1    -7.84889    -9.81111    -7.84889
   523   1    -3.92444    -9.81111    -7.84889
   524   2     0.00000    -9.81111    -7.84889
   525   1     3.92444    -9.81111    -7.84889
   526   1     7.84889    -9.81111    -7.84889
   527   1    -7.84889    -9.81111    -3.92444
   528   2    -3.92444    -9.81111    -3.92444
   529   2     0.00000    -9.81111    -3.92444
   530   2     3.92444    -9.81111    -3.92444
   531   1     7.84889    -9.81111    -3.92444
   532   2    -7.84889    -9.81111     0.00000
   533   2    -3.92444    -9.81111     0.00000
   534   2     0.00000    -9.81111     0.00000
   535   2     3.92444    -9.81111     0.00000
   536   2     7.84889    -9.81111     0.00000
   537   1    -7.84889    -9.81111     3.92444
   538   2    -3.92444    -9.81111     3.92444
   539   2     0.00000    -9.81111     3.92444
   540   2     3.92444    -9.81111     3.92444
   541   1     7.84889    -9.81111     3.92444
   542   1    -7.84889    -9.81111     7.84889
   543   1    -3.92444    -9.81111     7.84889
   544   2     0.00000    -9.81111     7.84889
   545   1     3.92444    -9.81111     7.84889
   546   1     7.84889    -9.81111     7.84889
   547   1    -3.92444    -5.88666   -11.77333
   548   1     0.00000    -5.88666   -11.77333
   549   1     3.92444    -5.88666   -11.77333
   550   2    -7.84889    -5.88666    -7.84889
   551   2    -3.92444    -5.88666    -7.84889
   552   2     0.00000    -5.88666    -7.84889
   553   2     3.92444    -5.88666    -7.84889
   554   2     7.84889    -5.88666    -7.84889
   555   1   -11.77333    -5.88666    -3.92444
   556   2    -7.84889    -5.88666    -3.92444
   557   2    -3.92444    -5.88666    -3.92444
   558   2     0.00000    -5.88666    -3.92444
   559   2     3.92444    -5.88666    -3.92444
   560   2     7.84889    -5.88666    -3.92444
   561   1    11.77333    -5.88666    -3.92444
   562   1   -11.77333    -5.88666     0.00000
   563   2    -7.84889    -5.88666     0.00000
   564   2    -3.92444    -5.88666     0.00000
   565   2     0.00000    -5.88666     0.00000
   566   2     3.92444    -5.88666     0.00000
   567   2     7.84889    -5.88666     0.00000
   568   1    11.77333    -5.88666     0.00000
   569   1   -11.77333    -5.88666     3.92444
   570   2    -7.84889    -5.88666     3.92444
   571   2    -3.92444    -5.88666     3.92444
   572   2     0.00000    -5.88666     3.92444
   573   2     3.92444    -5.88666     3.92444
   574   2     7.84889    -5.88666     3.92444
   575   1    11.77333    -5.88666     3.92444
   576   2    -7.84889    -5.88666     7.84889
   577   2    -3.92444    -5.88666     7.84889
   578   2     0.00000    -5.88666     7.84889
   579   2     3.92444    -5.88666     7.84889
   580   2     7.84889    -5.88666     7.84889
   581   1    -3.92444    -5.88666    11.77333
   582   1     0.00000    -5.88666    11.77333
   583   1     3.92444    -5.88666    11.77333
   584   1    -7.84889    -1.96222   -11.77333
   585   2    -3.92444    -1.96222   -11.77333
   586   2     0.00000    -1.96222   -11.77333
   587   2     3.92444    -1.96222   -11.77333
   588   1     7.84889    -1.96222   -11.77333
   589   1   -11.77333    -1.96222    -7.84889
   590   2    -7.84889    -1.96222    -7.84889
   591   2    -3.92444    -1.96222    -7.84889
   592   2     0.00000    -1.96222    -7.84889
   593   2     3.92444    -1.96222    -7.84889
   594   2     7.84889    -1.96222    -7.84889
   595   1    11.77333    -1.96222    -7.84889
   596   2   -11.77333    -1.96222    -3.92444
   597   2    -7.84889    -1.96222    -3.92444
   598   2    -3.92444    -1.96222    -3.92444
   599   2     0.00000    -1.96222    -3.92444
   600   2     3.92444    -1.96222    -3.92444
   601   2     7.84889    -1.96222    -3.92444
   602   2    11.77333    -1.96222    -3.92444
   603   2   -11.77333    -1.96222     0.00000
   604   2    -7.84889    -1.96222     0.00000
   605   2    -3.92444    -1.96222     0.00000
   606   2     0.00000    -1.96222     0.00000
   607   2     3.92444    -1.96222     0.00000
   608   2     7.84889    -1.96222     0.00000
   609   2    11.77333    -1.96222     0.00000
   610   2   -11.77333    -1.96222     3.92444
   611   2    -7.84889    -1.96222     3.92444
   612   2    -3.92444    -1.96222     3.92444
   613   2     0.00000    -1.96222     3.92444
   614   2     3.92444    -1.96222     3.92444
   615   2     7.84889    -1.96222     3.92444
   616   2    11.77333    -1.96222     3.92444
   617   1   -11.77333    -1.96222     7.84889
   618   2    -7.84889    -1.96222     7.84889
   619   2    -3.92444    -1.96222     7.84889
   620   2     0.00000    -1.96222     7.84889
   621   2     3.92444    -1.96222     7.84889
   622   2     7.84889    -1.96222     7.84889
   623   1    11.77333    -1.96222     7.84889
   624   1    -7.84889    -1.96222    11.77333
   625   2    -3.92444    -1.96222    11.77333
   626   2     0.00000    -1.96222    11.77333
   627   2     3.92444    -1.96222    11.77333
   628   1     7.84889    -1.96222    11.77333
   629   1    -7.84889     1.96222   -11.77333
   630   2    -3.92444     1.96222   -11.77333
   631   2     0.00000     1.96222   -11.77333
   632   2     3.92444     1.96222   -11.77333
   633   1     7.84889     1.96222   -11.77333
   634   1   -11.77333     1.96222    -7.84889