4321
 Atoms. Timestep: 3600
3 0.162622 -7.71734 -22.5969
2 -3.9216 -4.13098 -22.8599
1 -0.0329633 -3.98433 -22.865
3 3.92669 -4.18025 -22.6907
3 -7.60281 -0.180376 -22.816
3 -3.91255 -0.243421 -22.984
3 -0.114794 -0.0250867 -23.0379
3 3.76929 0.0215135 -22.7293
3 7.39963 -0.0450708 -22.7383
3 -3.88068 4.1048 -22.7304
1 -0.111922 3.8153 -22.9645
1 3.76719 3.91888 -22.892
3 -0.0445087 7.61487 -22.82
3 -7.84124 -11.5501 -18.7327
3 -3.96642 -11.5515 -18.7729
2 -0.0736191 -11.6035 -19.1764
2 3.77867 -11.56 -19.2236
2 7.53342 -11.4661 -19.0576
3 -11.5801 -7.81485 -18.94
2 -7.8353 -7.69867 -18.908
2 -3.90558 -7.78536 -19.1208
2 -0.0628909 -7.77744 -19.1494
3 3.88168 -7.6176 -19.2464
1 7.5171 -7.86463 -19.2372
3 11.4443 -7.72788 -19.1205
3 -11.5832 -3.77442 -19.2073
1 -7.7487 -3.85242 -19.2133
1 -4.02683 -3.80143 -19.3539
2 -0.0232408 -3.96276 -19.36
2 3.79104 -3.97674 -19.3746
3 7.79943 -3.74773 -19.3632
3 11.4361 -3.7343 -19.2006
1 -11.7606 0.246448 -19.6157
2 -7.70711 0.0276077 -19.5265
2 -3.97383 -0.0372205 -19.3218
1 -0.0856465 0.0225662 -19.3355
2 3.79839 0.013491 -19.1521
1 7.62715 -0.00720033 -19.0999
2 11.3005 0.0937828 -19.2676
3 -11.5079 4.01294 -19.2398
2 -7.89231 4.09948 -19.4353
2 -4.0451 4.11692 -19.3657
1 -0.162474 3.78904 -19.2395
2 3.73301 3.75514 -19.2759
2 7.56456 3.85586 -19.3103
1 11.2389 3.93655 -19.1342
3 -11.5008 7.83646 -19.083
2 -7.7394 7.91163 -19.2594
2 -3.93152 7.72317 -19.1833
2 -0.2413 7.73843 -19.3918
3 3.72511 7.81569 -19.2398
2 7.49946 7.80464 -19.234
3 11.1453 7.85627 -18.9951
3 -7.69954 11.6102 -19.0678
1 -4.19809 11.749 -19.255
3 -0.0541908 11.5348 -19.413
2 3.95562 11.6383 -19.3767
3 7.50106 11.5504 -19.1702
3 -7.81769 -15.1609 -14.9961
2 -3.89423 -15.3014 -15.1248
2 -0.204493 -15.2663 -15.2526
2 3.71601 -15.536 -15.471
1 7.91775 -15.33 -15.4627
3 -11.5619 -11.5579 -15.1831
2 -7.68473 -11.4434 -15.2073
1 -3.98309 -11.4023 -15.0938
2 -0.0378128 -11.6336 -15.2272
2 3.82429 -11.5918 -15.4222
2 7.55553 -11.6116 -15.4378
3 11.5315 -11.6544 -15.3153
3 -15.4993 -7.51904 -15.254
3 -11.6286 -7.54654 -15.2655
2 -7.68604 -7.67932 -15.2532
2 -3.97787 -7.65234 -15.3958
2 0.0564745 -7.72925 -15.4277
1 3.89853 -7.68497 -15.4641
2 7.48983 -7.72621 -15.5559
3 11.434 -7.72189 -15.4185
3 15.0918 -7.73431 -15.2848
2 -15.5997 -3.81564 -15.5109
2 -11.6483 -3.85408 -15.5339
2 -7.71637 -3.68955 -15.4397
2 -3.68547 -3.81722 -15.4738
2 -0.0530789 -3.70153 -15.3963
2 3.83242 -3.93423 -15.5076
1 7.55194 -3.99998 -15.6275
1 11.5704 -3.95557 -15.4986
1 15.2032 -3.76123 -15.5833
1 -15.4532 0.236362 -15.6058
1 -11.6207 0.106072 -15.5891
2 -7.62512 0.0893976 -15.4865
2 -3.81379 0.0578707 -15.6814
2 -0.0226121 -0.0117506 -15.508
3 3.75756 0.124486 -15.5465
1 7.6468 0.0603395 -15.6102
2 11.3844 0.0981869 -15.4051
3 15.1932 0.143534 -15.3458
3 -15.4443 3.94253 -15.4664
2 -11.6395 3.79385 -15.5293
1 -7.78867 3.9958 -15.5287
2 -3.84022 3.92045 -15.4041
1 0.0451472 3.88957 -15.4968
2 3.80015 3.75419 -15.6221
2 7.53161 3.88607 -15.4832
2 11.2815 3.78887 -15.6521
3 15.136 3.9362 -15.4404
3 -15.1836 7.81403 -15.3029
3 -11.4461 7.75544 -15.2882
1 -7.71146 7.79116 -15.4471
1 -3.74213 7.79407 -15.5066
1 0.0242156 7.7765 -15.3994
2 3.78021 7.70569 -15.3976
3 7.52582 7.73379 -15.4455
2 11.3269 7.80522 -15.4312
3 14.8864 7.80513 -15.2194
2 -11.5848 11.6734 -15.4143
1 -7.74198 11.585 -15.4031
2 -3.8301 11.5625 -15.4674
2 -0.00803613 11.549 -15.433
3 3.78735 11.6855 -15.4174
2 7.58084 11.5929 -15.2909
1 11.2769 11.7416 -15.4581
2 -7.84439 15.4351 -15.1845
2 -3.7745 15.6463 -15.5679
1 0.00926211 15.4474 -15.388
2 3.66114 15.667 -15.4554
3 7.47957 15.3666 -15.251
2 -7.78409 -19.0359 -11.2833
2 -4.11031 -19.2342 -11.42
1 -0.10927 -19.2738 -11.4554
2 3.924 -19.3429 -11.8894
2 7.60432 -19.0036 -11.5193
3 -11.5556 -15.3875 -11.4458
2 -7.75553 -15.3757 -11.3842
1 -3.9832 -15.2666 -11.438
2 -0.0237796 -15.3617 -11.5548
3 3.71869 -15.3638 -11.5454
2 7.77285 -15.3585 -11.5359
3 11.5858 -15.2542 -11.5463
2 -15.6806 -11.388 -11.6277
2 -11.8406 -11.5591 -11.4533
3 -7.74792 -11.5282 -11.3903
2 -3.74431 -11.4963 -11.3658
2 0.0173321 -11.5723 -11.5585
2 3.83454 -11.5873 -11.5057
3 7.6908 -11.6773 -11.6102
3 11.5546 -11.4767 -11.4886
3 15.2694 -11.5122 -11.6393
3 -19.1162 -7.74878 -11.3953
2 -15.6375 -7.72665 -11.6277
2 -11.7725 -7.5148 -11.5375
2 -7.74827 -7.75053 -11.6483
2 -3.86111 -7.44876 -11.5565
1 0.0790594 -7.63661 -11.4763
2 3.9228 -7.68992 -11.6848
2 7.73728 -7.81651 -11.579
2 11.5337 -7.88579 -11.635
1 15.3887 -7.67874 -11.6165
3 18.9753 -7.61665 -11.549
3 -19.1718 -3.75722 -11.7161
2 -15.494 -3.7204 -11.7875
1 -11.7089 -3.69601 -11.7568
2 -7.70895 -3.55782 -11.6949
2 -3.91672 -3.79089 -11.5338
2 0.0543376 -3.66544 -11.5662
2 3.9631 -3.9213 -11.673
2 7.8088 -3.96403 -11.6419
3 11.5394 -3.96821 -11.7557
2 15.2599 -3.7985 -11.5675
3 18.8638 -3.73214 -11.5738
1 -19.3174 0.0110569 -11.9245
1 -15.4461 0.0144109 -11.9305
2 -11.6171 0.189192 -11.5561
2 -7.78346 0.103092 -11.642
2 -3.78474 0.0611516 -11.6089
2 -0.0488208 0.108736 -11.5139
2 3.72361 -0.0291351 -11.5193
2 7.58188 0.0216092 -11.4804
2 11.3878 -0.00251563 -11.6286
2 15.1314 -0.0230159 -11.5901
2 19.0646 0.0456001 -11.6768
3 -19.0361 3.84745 -11.5947
1 -15.3766 3.76986 -11.6996
2 -11.5858 3.93397 -11.6057
1 -7.70146 3.92519 -11.5899
2 -3.87799 3.86384 -11.5249
2 -0.174747 4.03951 -11.4916
2 3.71358 4.00034 -11.5711
1 7.55153 3.93325 -11.5543
2 11.3642 3.8379 -11.5962
2 15.142 3.96575 -11.703
2 19.138 4.04356 -11.672
3 -18.9481 7.78865 -11.4014
1 -15.1617 7.74664 -11.4284
1 -11.3286 7.76762 -11.6774
2 -7.68301 7.78915 -11.667
2 -3.86576 7.60231 -11.5367
1 -0.177154 7.74999 -11.4988
2 3.76317 7.73047 -11.6497
2 7.48633 7.75783 -11.5946
1 11.3451 7.7898 -11.6001
2 15.1477 7.80158 -11.5858
2 18.7727 7.76401 -11.5069
3 -15.135 11.5676 -11.5547
2 -11.5376 11.5741 -11.5055
2 -7.81214 11.6498 -11.5328
2 -3.76241 11.62 -11.5221
2 0.0587684 11.5087 -11.5541
2 3.71045 11.6163 -11.6269
2 7.4767 11.6165 -11.6021
2 11.4164 11.7839 -11.6649
1 15.2809 11.9222 -11.7822
3 -11.4804 15.3435 -11.4401
2 -7.71235 15.4001 -11.5804
3 -3.74564 15.4489 -11.5248
2 0.00391984 15.5531 -11.5489
3 3.81633 15.3141 -11.5401
3 7.59768 15.4241 -11.5352
2 11.3619 15.5115 -11.5554
3 -7.74626 18.9091 -11.3658
3 -3.76683 19.102 -11.5549
3 -0.106112 19.184 -11.5185
1 3.816 19.2438 -11.5629
3 7.36176 19.1555 -11.5318
3 -0.0641128 -22.7475 -7.57372
3 -11.4748 -19.1095 -7.51996
3 -7.81023 -19.0119 -7.44689
1 -3.87597 -19.0687 -7.5855
3 -0.00350945 -19.0991 -7.66082
3 3.82008 -19.1961 -7.59159
2 7.64796 -19.113 -7.6737
3 11.3748 -18.9387 -7.79188
3 -15.3634 -15.4436 -7.76391
3 -11.6408 -15.2978 -7.63859
2 -7.77048 -15.3784 -7.54092
2 -3.94074 -15.4774 -7.5971
1 -0.0713007 -15.4506 -7.57785
2 3.91758 -15.4192 -7.62739
1 7.71431 -15.3829 -7.60829
2 11.6092 -15.3266 -7.73106
3 15.1737 -15.312 -7.92545
3 -19.3282 -11.3723 -7.91797
2 -15.5227 -11.5041 -7.71376
1 -11.7461 -11.5858 -7.76016
2 -7.84269 -11.47 -7.78447
2 -3.8462 -11.5392 -7.62773
2 0.125514 -11.5454 -7.60143
2 4.08866 -11.5105 -7.70274
1 7.77808 -11.6595 -7.55553
2 11.6178 -11.6276 -7.62121
3 15.2965 -11.5542 -7.81476
3 18.8765 -11.425 -7.91184
3 -19.3596 -7.61993 -7.57031
1 -15.6322 -7.78495 -7.80245
1 -11.7913 -7.61867 -7.75999
2 -7.75409 -7.72712 -7.59945
1 -3.77244 -7.68038 -7.72514
2 0.145739 -7.58082 -7.68669
2 3.96335 -7.88613 -7.69167
1 7.87386 -7.83487 -7.78361
2 11.5269 -7.81305 -7.7337
2 15.3782 -7.79572 -7.65168
2 19.0079 -7.8033 -7.69139
1 -19.3493 -3.73753 -7.9318
1 -15.619 -3.79937 -7.96617
2 -11.5967 -3.80642 -7.93438
1 -7.71217 -3.9167 -7.96889
1 -3.71192 -3.66803 -7.73616
2 0.247404 -3.93072 -7.76194
2 4.02295 -3.86539 -7.66346
2 7.92869 -4.06104 -7.64927
2 11.5608 -3.93649 -7.79704
1 15.2996 -3.87772 -7.74926
1 19.0192 -3.89034 -7.61393
1 -22.6538 0.0644706 -7.94952
2 -19.3439 0.0340227 -7.86949
2 -15.5375 0.126995 -7.9092
1 -11.6081 -0.0156745 -7.84633
1 -7.53281 -0.0583983 -7.75606
1 -3.72114 0.00596818 -7.59862
1 0.0416411 0.0150681 -7.61267
2 3.93072 -0.109135 -7.65871
1 7.66162 -0.0906269 -7.6972
2 11.4769 -0.0834153 -7.78579
1 15.219 0.00871385 -7.60391
1 19.1163 -0.0214775 -7.75576
3 22.2978 0.0174062 -7.70255
2 -19.1749 3.94579 -7.85547
2 -15.4133 3.94909 -7.76142
2 -11.6547 3.73707 -7.74718
2 -7.66049 3.74351 -7.71796
2 -3.8198 3.95311 -7.6157
2 0.0213295 3.84878 -7.70401
1 3.81012 3.82175 -7.68737
1 7.7211 3.80726 -7.69648
2 11.4648 3.6549 -7.86078
2 15.3718 3.90243 -7.79016
3 19.0937 3.84547 -7.78665
2 -19.0286 7.99196 -7.79326
2 -15.3676 7.74203 -7.68169
2 -11.4912 7.66621 -7.70477
2 -7.69021 7.69841 -7.83572
2 -3.94447 7.77304 -7.64894
2 -0.00583609 7.77895 -7.61618
2 3.88847 7.83343 -7.60811
2 7.6541 7.68973 -7.7194
2 11.4226 7.75876 -7.61297
1 15.2902 7.74706 -7.72057
1 19.0573 7.93668 -7.71079
2 -18.858 11.4918 -7.8054
3 -15.1434 11.5929 -7.62785
3 -11.5072 11.5527 -7.54429
2 -7.52853 11.5997 -7.61651
1 -3.78393 11.6266 -7.58097
1 -0.0825903 11.6584 -7.59213
3 3.81553 11.7016 -7.62932
3 7.62934 11.6443 -7.79954
2 11.4013 11.6653 -7.92105
3 15.0521 11.6984 -7.95482
2 18.9331 11.6554 -8.11966
3 -15.1371 15.2708 -7.72454
1 -11.3852 15.242 -7.59043
2 -7.582 15.4413 -7.65224
1 -3.75053 15.4964 -7.5527
1 -0.0714205 15.5427 -7.51603
2 3.7984 15.4401 -7.78353
3 7.50621 15.5671 -7.7115
1 11.3414 15.5848 -7.83042
3 14.8851 15.4642 -7.62295
3 -11.3612 19.045 -7.75436
3 -7.66644 19.1097 -7.73051
2 -3.74046 19.3167 -7.91768
2 0.0176623 19.3138 -7.77006
3 3.7159 19.2398 -7.8219
2 7.44612 19.2146 -7.70829
1 11.1618 19.0042 -7.72228
3 -0.110193 22.7559 -7.64358
3 -3.96438 -22.6194 -3.91793
3 0.0524673 -22.7066 -3.89372
3 4.02445 -22.5607 -3.9624
2 -11.5574 -18.9091 -3.85065
2 -7.87259 -19.2108 -3.94659
2 -3.83047 -19.124 -3.83986
1 0.153987 -19.0972 -3.87666
3 4.0025 -19.2308 -3.88077
2 7.77837 -19.1775 -3.87968
3 11.635 -19.2705 -3.8593
3 -15.5683 -15.229 -3.9097
1 -11.7056 -15.2272 -3.95014
1 -7.7975 -15.2683 -3.9329
2 -3.91263 -15.4028 -3.77178
1 0.224255 -15.5297 -3.71925
2 4.00061 -15.5022 -3.81635
1 7.80068 -15.4503 -3.88027
1 11.7772 -15.6314 -3.92607
2 15.6054 -15.6131 -4.08428
1 -19.5688 -11.636 -4.10164
2 -15.5624 -11.4314 -3.91348
1 -11.7254 -11.421 -3.95431
1 -7.81055 -11.4502 -3.84186
1 -3.82497 -11.6065 -3.79124
1 0.114084 -11.62 -3.59448
2 3.91687 -11.6535 -3.79921
1 7.86023 -11.8112 -3.75191
3 11.7893 -11.5928 -3.81659
1 15.5245 -11.6435 -3.9559
1 19.293 -11.9549 -4.24195
1 -19.5337 -7.65989 -3.98822
1 -15.5805 -7.61783 -4.02759
1 -11.7759 -7.66857 -3.9146
1 -7.87323 -7.71997 -3.936
1 -3.7818 -7.71536 -3.88223
1 0.100021 -7.84074 -3.69392
1 4.06822 -7.93575 -3.78113
2 7.87421 -7.92368 -3.74042
2 11.7045 -7.98067 -3.70891
2 15.4515 -7.84211 -3.8891
3 19.1036 -7.77621 -3.93166
3 -22.8155 -3.79254 -4.29013
2 -19.3594 -3.98733 -4.0067
2 -15.4578 -3.80621 -3.9767
1 -11.6742 -3.7711 -3.82752
1 -7.82562 -3.82758 -3.93447
2 -3.70597 -3.76721 -3.88354
2 0.117543 -3.92292 -3.7453
2 3.86139 -3.92918 -3.75774
1 7.79029 -4.0379 -3.82916
1 11.578 -3.97363 -3.81854
2 15.502 -3.79717 -3.85478
2 19.423 -4.00704 -3.8726
3 22.5753 -4.12726 -4.01303
1 -22.9827 0.0542224 -3.74826
2 -19.1977 0.0710829 -3.84731
1 -15.5085 0.112517 -3.92429
1 -11.498 -0.129743 -3.88612
1 -7.70497 -0.174492 -3.97503
2 -3.8038 -0.143679 -3.79965
1 0.112506 -0.10881 -3.65199
2 3.95644 -0.0689814 -3.94141
1 7.70998 -0.163888 -3.80751
1 11.6322 -0.0485387 -3.9017
1 15.3761 -0.182451 -3.89111
2 19.2342 0.107706 -3.8664
1 22.8239 0.26714 -3.92581
2 -22.2774 4.67922 -3.90623
2 -19.4353 3.98901 -3.92547
2 -15.572 3.97594 -3.86523
1 -11.5258 3.80411 -3.91995
1 -7.62023 3.7544 -3.96114
2 -3.76057 3.94233 -3.75523
2 0.0320229 3.79815 -3.87945
2 3.86679 3.75248 -3.73832
2 7.62755 3.76476 -3.88002
2 11.5545 3.72616 -3.80709
2 15.4234 3.98368 -3.83591
3 19.1491 3.9633 -3.69826
2 22.8589 4.28003 -3.80092
3 -19.3412 7.90639 -3.8577
1 -15.3738 7.64178 -3.76626
2 -11.397 7.53107 -3.85428
1 -7.59441 7.68115 -3.75702
2 -3.77132 7.69699 -3.75144
2 0.0298347 7.69292 -3.77351
2 3.82655 7.77848 -3.8448
2 7.58353 7.67255 -3.8567
2 11.4227 7.66459 -3.85769
2 15.2278 7.71338 -3.94568
2 19.019 7.88365 -4.02253
1 -19.037 11.67 -4.03743
2 -15.2157 11.6785 -3.82319
1 -11.5385 11.6524 -3.82259
1 -7.71055 11.4861 -3.71549
2 -3.7985 11.6078 -3.70253
1 0.0847898 11.592 -3.65752
2 3.79736 11.7974 -3.92873
2 7.61856 11.6961 -3.8384
2 11.2816 11.695 -3.8856
3 15.0655 11.718 -4.15446
2 18.9019 11.8263 -4.07613
1 -15.3711 15.522 -3.87524
1 -11.5022 15.5044 -3.92069
2 -7.63149 15.4556 -3.73061
2 -3.96116 15.4921 -3.59535
3 0.0378396 15.495 -3.79211
2 3.84934 15.6451 -3.72728
2 7.56314 15.5815 -3.74745
1 11.4137 15.6251 -3.70594
2 15.3631 15.5967 -3.79566
1 -11.5592 19.1845 -3.92571
3 -7.7436 19.4725 -3.94078
2 -3.70958 19.5763 -3.98232
3 0.0891988 19.2828 -3.77159
1 3.85667 19.4379 -3.71091
3 7.67053 19.3901 -3.7989
1 11.4391 19.3715 -3.87353
3 -3.86253 22.8304 -4.09017
3 0.130407 23.114 -3.82218
2 3.83829 22.8948 -3.92038
3 -8.13706 -22.4724 -0.188741
3 -4.08551 -22.8065 -0.0321692
2 -0.0705555 -22.8921 -0.119809
1 3.91155 -22.9209 -0.104633
3 7.65919 -22.7049 -0.0661127
2 -11.6604 -19.0265 -0.233036
1 -7.86264 -19.1816 -0.0778455
1 -3.96836 -19.1722 -0.0658542
2 -0.0390449 -19.4471 0.109349
2 3.78424 -19.3003 -0.101426
2 7.89955 -19.2057 0.0182503
1 11.674 -19.3255 0.0704365
3 -15.4262 -15.1375 -0.0148901
2 -11.7912 -15.2627 -0.122328
2 -7.80028 -15.391 0.0044791
1 -3.9637 -15.3422 0.0710295
2 -0.0137817 -15.6196 0.115395
2 4.17813 -15.5247 0.080444
2 7.89366 -15.6914 0.0705756
2 11.915 -15.6546 0.0162976
1 15.3802 -15.5924 0.0971308
3 -19.2613 -11.3935 -0.0980595
2 -15.6469 -11.4962 0.0215501
1 -11.5889 -11.4984 0.00365018
1 -7.66778 -11.51 -0.145018
2 -3.87298 -11.5609 -0.017145
1 0.175269 -11.5982 0.142128
2 4.00696 -11.746 0.149039
2 8.10918 -11.754 0.190304
2 11.892 -11.7884 0.131647
1 15.7608 -11.8455 0.0903538
3 19.2212 -11.8457 -0.0946423
3 -22.6967 -7.61988 0.0128995
1 -19.3174 -7.61118 -0.0728342
2 -15.5584 -7.57902 0.0308041
2 -11.7838 -7.72046 0.0496313
2 -7.6423 -7.58633 -0.0746833
2 -3.74421 -7.81614 0.0231451
1 0.0703475 -7.91701 0.0575794
1 4.07298 -7.92998 0.0236456
2 7.99744 -7.94344 0.145973
1 11.7421 -8.04145 0.129867
1 15.6472 -7.97512 0.0236346
2 19.2964 -7.91656 0.115687
3 22.567 -7.58414 0.116319
3 -22.9533 -3.84887 -0.0228568
2 -19.3455 -3.77947 -0.0762277
2 -15.5732 -3.77394 -0.133753
2 -11.5592 -3.79559 -0.0426982
2 -7.63336 -3.99864 -0.0519142
2 -3.66364 -4.02856 -0.034058
2 0.21988 -3.9499 0.00492711
2 4.08597 -3.97477 -0.000217088
2 7.91159 -4.09079 0.0431107
1 11.8111 -3.993 0.0420857
2 15.4206 -3.95777 -0.0127627
2 19.2947 -3.8525 -0.0668915
3 22.9064 -3.82451 0.0439773
2 -23.0519 -0.288224 0.10127
2 -19.499 -0.145206 0.0524391
1 -15.4755 -0.0151902 -0.012027
2 -11.6129 0.0823508 0.022135
2 -7.66834 -0.0415463 0.0145916
2 -3.7522 -0.0487498 0.0203497
2 0.137292 -0.154111 0.102911
2 4.01002 -0.20217 0.115922
2 7.87619 -0.147894 0.0410581
2 11.563 0.016391 0.0773195
2 15.4876 0.0589655 -0.0274922
1 19.1655 0.0768461 0.0739907
3 22.9572 0.153144 0.345735
3 -22.9509 4.0446 0.123724
2 -19.17 3.83202 0.220638
2 -15.3185 3.95732 0.0101101
2 -11.5613 3.72993 0.0300008
1 -7.72958 3.78557 -0.0348615
1 -3.77231 3.78661 -0.0360562
2 0.00792277 3.62794 0.173791
2 3.91028 3.83295 0.0153759
2 7.67947 3.61534 0.0979034
1 11.5864 3.8431 0.0655112
2 15.3466 3.77112 0.0688759
2 19.2414 3.85821 0.124212
3 22.682 4.23927 0.0191104
3 -22.5929 7.69697 0.146579
2 -19.2146 7.78573 -0.0158145
2 -15.4906 7.68768 0.0203392
2 -11.3995 7.56848 -0.0193172
1 -7.61554 7.71059 0.121365
1 -3.73203 7.61859 0.00523011
2 0.150277 7.5197 0.129526
2 3.89432 7.59084 -0.0278126
2 7.60927 7.64672 -0.0393285
1 11.2503 7.7604 0.0106251
2 15.2934 7.73719 -0.121216
1 19.0343 7.81436 -0.0120206
3 22.2391 7.74989 0.00514203
2 -19.202 11.6968 -0.122232
2 -15.4147 11.6895 -0.0227425
1 -11.5067 11.4323 -0.121233
1 -7.70583 11.5464 0.0633675
1 -3.68969 11.5637 0.0753538
2 0.033291 11.4964 -0.0279404
2 3.99347 11.6487 -0.0596794
1 7.59688 11.6576 0.0111231
2 11.2976 11.6225 -0.193535
1 15.1148 11.6657 -0.0216261
2 18.8618 11.797 -0.0957563
2 -15.2996 15.3862 0.028509
2 -11.594 15.6556 -0.174553
3 -7.64416 15.5463 -0.0278765
2 -3.62568 15.4534 -0.0144838
2 0.0322582 15.4992 -0.0187647
2 3.8752 15.6173 0.133516
3 7.59949 15.62 0.141724
1 11.3878 15.4782 -0.00836645
2 15.0531 15.3928 -0.123531
3 -11.6047 19.2642 -0.144235
1 -7.72681 19.4552 0.0579977
2 -3.85822 19.4417 -0.0808626
3 -0.0863736 19.4997 0.0500877
3 3.7744 19.4917 0.110703
2 7.81084 19.4166 -0.0262595
3 11.3775 19.3145 -0.143263
3 -7.77833 22.7842 -0.0982385
3 -3.95257 23.1071 -0.120965
2 -0.179887 23.1794 0.145561
3 3.72765 23.0798 0.0561932
3 7.60464 23.0475 0.108048
2 -4.10766 -22.7273 4.18692
3 0.152979 -22.9673 3.91959
3 4.10494 -22.772 4.03822
3 -11.6381 -18.912 3.75127
3 -7.92789 -19.1929 3.85924
2 -3.99581 -19.5124 4.04806
2 -0.0179535 -19.4214 4.0302
1 3.92571 -19.422 4.05532
2 7.76421 -19.3705 3.86336
2 11.7541 -19.1419 4.13045
3 -15.3819 -15.1936 3.84974
2 -11.6462 -15.2953 3.75919
2 -7.79082 -15.3324 3.91835
2 -3.90787 -15.486 3.94728
1 0.00877364 -15.4759 4.01616
1 3.93843 -15.574 3.97438
2 7.86906 -15.6685 3.95594
1 11.8452 -15.6149 4.06168
1 15.5967 -15.5851 4.08136
3 -19.2436 -11.523 3.91581
2 -15.4687 -11.4169 3.81862
1 -11.6687 -11.4845 3.72682
2 -7.8232 -11.4282 3.75821
2 -3.74644 -11.691 3.78096
1 0.118793 -11.7192 3.95277
2 4.08802 -11.6811 3.8623
2 7.94643 -11.7594 3.94643
2 11.9314 -11.7685 3.96734
2 15.7227 -11.9364 4.01531
2 19.3674 -11.6465 4.15217
2 -19.2094 -7.60387 3.75843
2 -15.4798 -7.70273 3.89941
1 -11.6295 -7.72426 3.82848
2 -7.60713 -7.6849 3.84258
2 -3.68101 -7.816 3.9602
1 0.104531 -7.9093 4.0232
2 3.99875 -7.9668 3.8888
1 8.01253 -7.96799 3.9738
2 11.8244 -7.9448 3.89615
1 15.5854 -7.87372 4.01624
3 19.213 -7.84618 4.02871
3 -22.7787 -3.92867 3.81038
2 -19.2069 -3.88139 3.86201
2 -15.4585 -3.74862 3.87799
2 -11.4699 -3.87973 3.86812
2 -7.55088 -3.81758 3.75319
2 -3.85469 -3.91004 3.96588
2 0.144669 -3.85384 3.93783
2 3.94333 -4.03956 3.88642
1 7.78376 -4.14369 4.02799
2 11.7936 -3.96001 3.98617
1 15.5843 -3.8001 3.92469
1 19.3507 -3.92437 4.03224
2 22.8933 -4.20872 4.09213
3 -23.0173 0.0327077 4.10892
2 -19.36 -0.0443194 3.86068
2 -15.5536 -0.114603 3.79676
2 -11.5465 -0.0626232 3.86439
1 -7.49876 -0.0915959 3.99082
2 -3.7249 -0.309614 3.82779
2 0.118186 -0.272666 3.90486
1 4.06157 -0.20505 3.97025
2 7.79684 -0.245326 4.00445
1 11.7018 -0.118378 3.90017
1 15.5306 -0.0558367 3.96131
1 19.2882 0.0589419 3.95882
2 22.8346 0.0410895 3.95516
2 -22.8452 3.92684 4.00397
1 -19.3764 3.87955 3.86949
1 -15.4751 3.88511 4.01542
2 -11.5608 3.85777 3.92402
2 -7.54837 3.64845 3.8108
2 -3.69986 3.78253 3.83082
2 0.219353 3.68437 3.85953
2 3.99287 3.59296 3.91603
2 7.80891 3.60402 3.89567
2 11.6047 3.86739 3.90029
1 15.4545 3.84157 3.99196
3 18.9406 3.89836 3.93689
3 22.6227 4.06151 4.20126
1 -19.2473 7.83723 3.90583
2 -15.3554 7.61885 3.85865
2 -11.56 7.7673 3.71061
1 -7.60371 7.69973 3.91616
1 -3.65684 7.65222 3.92965
2 0.29722 7.68257 3.92949
1 4.07171 7.60039 3.81831
1 7.80885 7.57636 3.98258
2 11.4539 7.75681 3.79638
2 15.3426 7.7031 3.93625
1 18.978 7.69652 3.85607
2 -19.2727 11.7913 3.97758
3 -15.37 11.5691 3.69022
1 -11.5307 11.5033 3.67036
1 -7.66962 11.7052 3.69211
2 -3.73286 11.5779 3.84051
2 0.252619 11.6262 3.78733
2 4.00578 11.5389 3.91012
2 7.74993 11.4414 3.88793
2 11.3765 11.8057 3.89882
2 15.0905 11.5762 3.92227
2 18.7967 11.6793 3.86199
2 -15.4059 15.3829 3.84032
1 -11.5401 15.5107 3.7997
2 -7.72745 15.402 3.81452
1 -3.79078 15.6359 3.771
1 0.123161 15.5808 3.83618
1 4.05345 15.6806 3.84236
2 7.58999 15.7942 4.09534
2 11.4403 15.5784 3.93936
3 15.1402 15.5599 3.85911
1 -11.5097 19.2618 3.78814
2 -7.84616 19.4834 3.74859
2 -3.84489 19.5778 3.79135
2 -0.0389627 19.5579 3.78803
1 3.88827 19.6158 3.99062
2 7.7189 19.5719 3.93222
2 11.6106 19.108 3.83429
3 -4.03047 23.039 3.85848
3 -0.108756 22.9922 3.79028
3 3.77809 22.8515 3.81157
3 0.163557 -22.6322 7.99594
3 -11.5985 -18.9467 7.59789
3 -7.83654 -18.9929 7.65202
2 -4.01549 -19.1658 7.86806
1 0.0169846 -19.2918 7.76965
1 3.86552 -19.4016 7.80181
3 7.90142 -19.166 7.86946
3 11.6652 -19.2023 7.96657
3 -15.2776 -15.2337 7.5939
3 -11.4177 -15.2235 7.70176
2 -7.81933 -15.3006 7.70921
2 -3.91048 -15.4606 7.78785
2 0.049112 -15.569 7.87829
3 3.95351 -15.6905 7.71985
1 7.96791 -15.4784 7.75619
2 11.6989 -15.5 7.9478
2 15.4739 -15.4416 8.00504
3 -19.0934 -11.3769 7.6807
3 -15.3531 -11.335 7.55834
1 -11.6117 -11.5531 7.70801
1 -7.7838 -11.5709 7.60063
1 -3.76526 -11.6433 7.74176
2 0.0387807 -11.6039 7.7751
1 4.02768 -11.6981 7.721
1 7.9324 -11.7555 7.736
3 11.7586 -11.8952 7.7447
2 15.4983 -11.7558 7.83579
3 19.111 -11.4157 7.95952
3 -19.0923 -7.65487 7.51396
1 -15.4681 -7.70028 7.56227
2 -11.5594 -7.70764 7.773
2 -7.73545 -7.69431 7.65791
1 -3.72936 -7.84364 7.77422
2 0.100996 -7.76132 7.71062
2 3.99197 -7.84902 7.69765
1 7.81475 -7.96354 7.7209
1 11.748 -7.89573 7.71973
1 15.4413 -7.88859 7.83113
3 19.1593 -7.79178 7.93756
1 -19.199 -3.84783 7.66075
3 -15.3726 -3.95431 7.57283
1 -11.5091 -3.86372 7.65189
1 -7.60777 -3.99723 7.82443
1 -3.69759 -4.04166 7.72752
2 0.181599 -3.98158 7.72828
1 3.93414 -4.09036 7.79291
2 7.8129 -4.04863 7.74155
1 11.7552 -3.98199 7.94103
1 15.5235 -3.92073 7.94804
1 19.2765 -4.08751 7.97353
3 -22.5616 0.06235 7.82227
2 -19.259 -0.163784 7.66981
1 -15.4501 -0.0865566 7.62993
2 -11.5703 -0.10864 7.55307
2 -7.60744 -0.187136 7.62772
2 -3.83094 -0.231361 7.66737
2 0.132642 -0.112543 7.69364
1 3.94321 -0.139942 7.70363
1 7.93397 -0.205945 7.83067
1 11.7277 -0.0247569 7.72153
2 15.435 -0.0283765 8.05471
2 19.288 -0.038005 7.99346
3 22.5815 0.225795 7.74408
1 -19.2003 3.74625 7.62552
2 -15.4617 3.87061 7.66545
2 -11.6257 3.86946 7.73201
2 -7.73684 3.8947 7.69544
2 -3.72741 3.79037 7.61486
1 0.178007 3.72698 7.67318
2 4.07805 3.627 7.82051
2 7.84496 3.64911 7.71666
2 11.5847 3.76999 7.9198
2 15.4164 3.85523 8.02641
2 19.0898 3.81816 8.13783
1 -19.2326 7.71746 7.66163
2 -15.4569 7.69421 7.74263
2 -11.6731 7.70578 7.50423
2 -7.64058 7.78732 7.50594
2 -3.55626 7.61417 7.66599
2 0.105307 7.77473 7.719
2 3.93726 7.62967 7.73831
2 7.6865 7.63171 7.63745
2 11.4463 7.74608 7.81169
2 15.2308 7.82725 7.83031
2 18.9544 7.77634 7.8026
3 -19.0611 11.4936 7.71518
2 -15.2417 11.5688 7.49293
2 -11.6685 11.5913 7.551
1 -7.60948 11.5726 7.69653
1 -3.67311 11.5506 7.47047
2 0.215251 11.6563 7.67774
1 4.02885 11.6629 7.75333
2 7.71412 11.7694 7.85893
2 11.4043 11.6429 7.64029
2 15.1811 11.6429 7.76345
3 18.8763 11.6627 7.66368
3 -15.2711 15.3715 7.56485
2 -11.5521 15.3206 7.51122
3 -7.71194 15.4651 7.60453
2 -3.75876 15.5406 7.58379
1 0.0267043 15.6319 7.56495
1 3.95221 15.7153 7.89649
3 7.70538 15.5585 7.75529
2 11.4612 15.5066 7.67117
2 15.0922 15.3545 7.68529
3 -11.5383 19.0781 7.68939
1 -7.69145 19.2138 7.69262
2 -3.87138 19.3784 7.79061
1 0.0380017 19.476 7.6862
3 3.85522 19.6778 7.77685
2 7.76675 19.4486 7.66082
3 11.4252 19.2825 7.61058
3 0.109093 23.025 7.62031
3 -7.89997 -19.0786 11.3611
2 -4.02694 -19.1565 11.7523
2 -0.0869523 -19.2843 11.7884
3 3.88263 -19.0758 11.6918
3 7.96486 -18.8098 11.6964
1 -11.6156 -15.295 11.5001
3 -7.77123 -15.2569 11.5714
3 -3.95624 -15.3953 11.6178
2 0.117262 -15.5082 11.6679
2 4.02447 -15.6207 11.6208
1 7.75938 -15.4152 11.7429
3 11.7843 -15.3332 11.6448
1 -15.4027 -11.6264 11.4852
2 -11.5927 -11.6053 11.5428
3 -7.7409 -11.6328 11.5605
3 -3.79827 -11.5039 11.6027
2 0.116774 -11.8037 11.5938
3 3.93904 -11.5867 11.649
1 7.81061 -11.7145 11.6208
3 11.6687 -11.6462 11.6272
3 15.4089 -11.568 11.6239
3 -19.0076 -7.6626 11.3028
2 -15.4935 -7.6596 11.4594
1 -11.5004 -7.68664 11.5698
1 -7.66471 -7.66405 11.6692
2 -3.77879 -7.81228 11.6153
2 0.163154 -7.8871 11.4625
2 3.94165 -7.77922 11.6702
1 7.82961 -7.90471 11.6176
2 11.774 -7.90409 11.6617
1 15.395 -7.8745 11.7677
3 19.1103 -7.97485 11.6893
2 -19.1289 -3.81278 11.4818
2 -15.3953 -3.86026 11.6244
1 -11.5636 -3.86647 11.6108
1 -7.65946 -3.91445 11.5408
1 -3.81941 -3.95336 11.5975
1 0.0657019 -4.06754 11.6346
2 3.91503 -4.08928 11.6499
2 7.93192 -3.9999 11.7857
1 11.5714 -4.03561 11.7826
2 15.4677 -3.94905 11.9422
2 19.2099 -4.06067 11.926
2 -19.2616 -0.030306 11.5311
1 -15.4668 0.0172208 11.4661
2 -11.6368 -0.0305773 11.5241
2 -7.79775 -0.143569 11.5955
2 -3.8433 -0.252801 11.4234
1 0.0986727 -0.162526 11.6053
1 3.9209 -0.23132 11.4772
2 7.72286 -0.091499 11.6235
2 11.6458 0.0205411 11.8281
2 15.5124 -0.147091 11.9883
2 19.3431 -0.0804558 12.0755
3 -19.0751 3.91542 11.5798
1 -15.3542 3.80151 11.461
1 -11.6368 3.86479 11.4047
1 -7.58596 3.77079 11.3623
1 -3.7541 3.73153 11.534
2 0.0561074 3.68595 11.5575
1 3.90649 3.75731 11.538
2 7.80951 3.77569 11.6072
1 11.6479 3.87506 11.6898
2 15.2798 3.98867 11.7657
2 19.0079 4.01638 11.9275
3 -18.9511 8.01825 11.5737
1 -15.3481 7.70452 11.4182
3 -11.4323 7.63827 11.4393
1 -7.61176 7.61112 11.4363
2 -3.82489 7.61035 11.3352
2 0.064632 7.77153 11.4703
2 3.97471 7.74982 11.5521
2 7.63944 7.78278 11.5843
2 11.4968 7.82287 11.6762
1 15.3493 7.80361 11.6531
3 18.9266 7.92368 11.3365
3 -15.1662 11.4837 11.4343
3 -11.4049 11.3778 11.3912
2 -7.6757 11.551 11.3498
2 -3.64683 11.6921 11.3653
2 0.122016 11.6888 11.3886
2 3.74181 11.6815 11.5865
1 7.67549 11.7598 11.6415
1 11.5848 11.7279 11.5355
1 15.2441 11.6509 11.7152
1 -11.5334 15.3444 11.5239
3 -7.56377 15.3842 11.402
2 -3.81704 15.4984 11.468
2 -0.0267539 15.553 11.4743
2 3.8526 15.5429 11.5315
2 7.69247 15.551 11.5523
3 11.3541 15.5024 11.7497
3 -7.81628 18.9344 11.551
3 -3.85345 19.1686 11.4528
2 -0.0115605 19.3537 11.5301
2 3.75213 19.5262 11.5081
2 7.64658 19.4045 11.4125
2 -7.73103 -15.2205 15.3582
2 -3.93286 -15.3542 15.2466
1 -0.138606 -15.481 15.4363
3 3.9362 -15.4359 15.4764
2 7.82047 -15.3531 15.3929
1 -11.6275 -11.7138 15.3181
3 -7.63684 -11.5433 15.3852
1 -3.91096 -11.6487 15.4113
1 0.0605741 -11.6924 15.3742
3 3.85562 -11.6723 15.5712
3 7.76517 -11.6907 15.3688
3 11.6955 -11.6302 15.3677
3 -15.373 -7.86991 15.0837
2 -11.6876 -7.73759 15.4238
2 -7.63575 -7.7757 15.414
2 -3.70746 -7.90597 15.5194
1 0.167408 -7.73959 15.3853
1 3.88489 -7.7611 15.4625
1 7.84468 -7.9228 15.4627
1 11.6104 -7.89512 15.6115
3 15.2493 -7.66262 15.3342
2 -15.4744 -3.94597 15.3641
2 -11.7175 -3.92683 15.4018
1 -7.70887 -3.90097 15.3432
2 -3.84206 -4.07587 15.4283
2 -0.0902343 -4.02459 15.4649
1 3.97146 -3.99012 15.4967
2 7.78105 -3.94532 15.4921
2 11.6891 -3.9601 15.6163
3 15.3572 -3.91561 15.712
1 -15.3113 -0.0818685 15.3871
1 -11.5847 -0.103484 15.4849
1 -7.62374 -0.131989 15.3157
2 -3.82965 -0.014514 15.5147
2 -0.099793 -0.169619 15.4626
2 3.91351 -0.0856107 15.4088
1 7.77851 -0.0505649 15.4762
2 11.586 0.0333618 15.6263
3 15.1882 -0.0100911 15.4942
3 -15.3022 3.83749 15.2845
1 -11.4717 3.80738 15.2647
1 -7.61266 3.79174 15.2878
2 -3.73889 3.73213 15.3609
2 0.0357332 3.82925 15.4467
2 3.91533 3.88403 15.4375
2 7.69034 3.93263 15.4152
3 11.5084 3.85603 15.456
2 15.2533 3.91577 15.6885
3 -15.2178 7.7017 15.0856
3 -11.5542 7.68493 15.1699
1 -7.63333 7.6372 15.2152
2 -3.76602 7.5168 15.221
2 0.111431 7.5935 15.2246
1 3.87503 7.78721 15.394
1 7.61091 7.74828 15.4374
3 11.372 7.76655 15.3277
3 15.0975 7.77677 15.5451
3 -11.446 11.4011 15.1182
2 -7.40201 11.3877 15.1458
2 -3.73778 11.5667 15.3007
2 0.0621077 11.6902 15.2881
2 3.90251 11.888 15.4142
3 7.61296 11.7012 15.2559
3 11.581 11.4903 15.4298
2 -7.70929 15.1637 15.1268
3 -3.77276 15.321 15.2336
2 0.00773842 15.4534 15.1062
2 3.80904 15.5571 15.3283
3 7.58977 15.4867 15.2618
3 -7.73681 -11.5288 18.9462
2 -3.91625 -11.6997 19.1607
2 0.20224 -11.5875 19.155
2 3.77441 -11.7395 19.1236
3 7.71575 -11.4567 19.128
2 -11.6273 -7.94816 19.0623
3 -7.74599 -7.81544 19.2358
2 -3.76863 -7.6912 19.1597
2 0.080938 -7.72775 19.233
3 3.89026 -7.90141 19.3161
2 7.64214 -7.78753 19.1163
3 11.4417 -7.89514 19.0983
1 -11.6159 -4.10437 19.1934
2 -7.65272 -4.03843 19.1227
2 -3.83583 -3.94366 19.175
1 -0.0537457 -3.92141 19.2655
2 3.9492 -3.92577 19.2691
2 7.74119 -3.89516 19.3132
3 11.4648 -3.87547 19.1462
1 -11.6174 -0.0634754 19.1123
3 -7.78739 -0.0834864 19.213
1 -3.84222 0.00722985 19.208
1 -0.0677008 0.0260456 19.066
2 3.762 -0.0288171 19.2203
2 7.75273 0.0649551 19.2031
2 11.5666 -0.0144048 19.3226
1 -11.4321 3.90302 19.0006
2 -7.59164 3.72338 19.1969
1 -3.85367 3.84302 19.0892
2 -0.0308012 3.82265 19.039
2 3.84351 3.95068 19.1719
2 7.65985 3.96663 19.2444
3 11.5273 3.93315 19.1802
3 -11.4062 7.82471 18.8977
1 -7.48955 7.63695 18.8675
2 -3.89391 7.62833 18.9734
1 -0.0287901 7.75681 19.0387
2 3.86936 7.86433 19.1093
3 7.37845 7.89533 19.1726
3 11.3525 7.81225 18.9417
3 -7.53345 11.4922 18.6065
3 -3.76227 11.6603 18.8559
1 0.202276 11.8899 19.2061
3 3.84955 11.6873 19.0244
3 7.6833 11.6519 18.9647
3 -0.104909 -7.44806 22.7581
2 -3.94796 -3.89565 22.7405
1 -0.151084 -3.75628 22.6994
3 3.82447 -3.9912 22.716
3 -7.40952 -0.113173 22.8418
2 -3.87068 0.0126391 22.8554
3 -0.124186 0.166797 22.417
3 3.71527 0.290248 22.5627
3 7.47474 0.227818 22.7203
3 -3.86427 4.15914 22.6249
3 -0.121979 4.02719 22.7239
3 3.82839 4.08108 22.5948
3 0.0452019 7.62155 22.4792
3 -5.99008 -5.90085 -22.3507
3 -1.80315 -5.86519 -22.7764
3 1.86004 -5.7791 -22.5305
3 6.02896 -6.11994 -21.9881
3 -5.73279 -2.0383 -22.8798
2 -1.9171 -2.13 -22.9609
3 1.76669 -1.92504 -23.0676
3 5.80769 -1.79612 -22.7897
3 -5.9077 1.70291 -22.9769
1 -2.0962 1.89901 -22.9807
1 1.75466 2.00797 -22.8524
3 5.51043 1.79664 -22.7465
3 -5.78345 5.89766 -22.7746
3 -1.92881 5.87175 -22.9007
3 1.71316 5.73607 -22.8553
3 5.64913 5.79507 -22.7889
3 -5.9955 -13.2273 -18.6476
3 -2.05934 -13.3544 -18.7368
3 1.85329 -13.3008 -19.0901
3 5.81035 -13.3988 -18.8975
3 -9.625 -9.72091 -18.8376
2 -5.90362 -9.8063 -19.0849
3 -1.94509 -9.56621 -18.9723
2 1.89878 -9.58217 -19.1969
3 5.5453 -9.59902 -19.0911
3 9.52821 -9.50534 -19.104
3 -13.4626 -5.99179 -19.062
3 -9.66518 -5.68191 -19.1543
1 -5.88658 -5.71918 -19.1741
1 -2.02537 -5.86244 -19.1932
1 1.82157 -5.80529 -19.2593
3 5.67064 -5.76891 -19.4321
2 9.7615 -5.73334 -19.3083
3 13.1646 -6.11176 -18.8092
2 -13.433 -1.8557 -19.2561