LAMMPS DATA FOR MEAM SIMULATION

   1264   atoms
      2   atom types

  -24.09   24.09   xlo xhi
  -24.09   24.09   ylo yhi
  -24.09   24.09   zlo zhi

 Atoms

     1   2    -5.28209    -5.28209   -12.32487
     2   2    -1.76070    -5.28209   -12.32487
     3   2     1.76070    -5.28209   -12.32487
     4   2     5.28209    -5.28209   -12.32487
     5   2    -5.28209    -1.76070   -12.32487
     6   1    -1.76070    -1.76070   -12.32487
     7   1     1.76070    -1.76070   -12.32487
     8   2     5.28209    -1.76070   -12.32487
     9   2    -5.28209     1.76070   -12.32487
    10   1    -1.76070     1.76070   -12.32487
    11   1     1.76070     1.76070   -12.32487
    12   2     5.28209     1.76070   -12.32487
    13   2    -5.28209     5.28209   -12.32487
    14   2    -1.76070     5.28209   -12.32487
    15   2     1.76070     5.28209   -12.32487
    16   2     5.28209     5.28209   -12.32487
    17   2    -5.28209    -8.80348    -8.80348
    18   1    -1.76070    -8.80348    -8.80348
    19   1     1.76070    -8.80348    -8.80348
    20   2     5.28209    -8.80348    -8.80348
    21   2    -8.80348    -5.28209    -8.80348
    22   1    -5.28209    -5.28209    -8.80348
    23   1    -1.76070    -5.28209    -8.80348
    24   1     1.76070    -5.28209    -8.80348
    25   1     5.28209    -5.28209    -8.80348
    26   2     8.80348    -5.28209    -8.80348
    27   1    -8.80348    -1.76070    -8.80348
    28   1    -5.28209    -1.76070    -8.80348
    29   1    -1.76070    -1.76070    -8.80348
    30   1     1.76070    -1.76070    -8.80348
    31   1     5.28209    -1.76070    -8.80348
    32   1     8.80348    -1.76070    -8.80348
    33   1    -8.80348     1.76070    -8.80348
    34   1    -5.28209     1.76070    -8.80348
    35   1    -1.76070     1.76070    -8.80348
    36   1     1.76070     1.76070    -8.80348
    37   1     5.28209     1.76070    -8.80348
    38   1     8.80348     1.76070    -8.80348
    39   2    -8.80348     5.28209    -8.80348
    40   1    -5.28209     5.28209    -8.80348
    41   1    -1.76070     5.28209    -8.80348
    42   1     1.76070     5.28209    -8.80348
    43   1     5.28209     5.28209    -8.80348
    44   2     8.80348     5.28209    -8.80348
    45   2    -5.28209     8.80348    -8.80348
    46   1    -1.76070     8.80348    -8.80348
    47   1     1.76070     8.80348    -8.80348
    48   2     5.28209     8.80348    -8.80348
    49   2    -5.28209   -12.32487    -5.28209
    50   2    -1.76070   -12.32487    -5.28209
    51   2     1.76070   -12.32487    -5.28209
    52   2     5.28209   -12.32487    -5.28209
    53   2    -8.80348    -8.80348    -5.28209
    54   1    -5.28209    -8.80348    -5.28209
    55   1    -1.76070    -8.80348    -5.28209
    56   1     1.76070    -8.80348    -5.28209
    57   1     5.28209    -8.80348    -5.28209
    58   2     8.80348    -8.80348    -5.28209
    59   2   -12.32487    -5.28209    -5.28209
    60   1    -8.80348    -5.28209    -5.28209
    61   1    -5.28209    -5.28209    -5.28209
    62   1    -1.76070    -5.28209    -5.28209
    63   1     1.76070    -5.28209    -5.28209
    64   1     5.28209    -5.28209    -5.28209
    65   1     8.80348    -5.28209    -5.28209
    66   2    12.32487    -5.28209    -5.28209
    67   2   -12.32487    -1.76070    -5.28209
    68   1    -8.80348    -1.76070    -5.28209
    69   1    -5.28209    -1.76070    -5.28209
    70   1    -1.76070    -1.76070    -5.28209
    71   1     1.76070    -1.76070    -5.28209
    72   1     5.28209    -1.76070    -5.28209
    73   1     8.80348    -1.76070    -5.28209
    74   2    12.32487    -1.76070    -5.28209
    75   2   -12.32487     1.76070    -5.28209
    76   1    -8.80348     1.76070    -5.28209
    77   1    -5.28209     1.76070    -5.28209
    78   1    -1.76070     1.76070    -5.28209
    79   1     1.76070     1.76070    -5.28209
    80   1     5.28209     1.76070    -5.28209
    81   1     8.80348     1.76070    -5.28209
    82   2    12.32487     1.76070    -5.28209
    83   2   -12.32487     5.28209    -5.28209
    84   1    -8.80348     5.28209    -5.28209
    85   1    -5.28209     5.28209    -5.28209
    86   1    -1.76070     5.28209    -5.28209
    87   1     1.76070     5.28209    -5.28209
    88   1     5.28209     5.28209    -5.28209
    89   1     8.80348     5.28209    -5.28209
    90   2    12.32487     5.28209    -5.28209
    91   2    -8.80348     8.80348    -5.28209
    92   1    -5.28209     8.80348    -5.28209
    93   1    -1.76070     8.80348    -5.28209
    94   1     1.76070     8.80348    -5.28209
    95   1     5.28209     8.80348    -5.28209
    96   2     8.80348     8.80348    -5.28209
    97   2    -5.28209    12.32487    -5.28209
    98   2    -1.76070    12.32487    -5.28209
    99   2     1.76070    12.32487    -5.28209
   100   2     5.28209    12.32487    -5.28209
   101   2    -5.28209   -12.32487    -1.76070
   102   1    -1.76070   -12.32487    -1.76070
   103   1     1.76070   -12.32487    -1.76070
   104   2     5.28209   -12.32487    -1.76070
   105   1    -8.80348    -8.80348    -1.76070
   106   1    -5.28209    -8.80348    -1.76070
   107   1    -1.76070    -8.80348    -1.76070
   108   1     1.76070    -8.80348    -1.76070
   109   1     5.28209    -8.80348    -1.76070
   110   1     8.80348    -8.80348    -1.76070
   111   2   -12.32487    -5.28209    -1.76070
   112   1    -8.80348    -5.28209    -1.76070
   113   1    -5.28209    -5.28209    -1.76070
   114   1    -1.76070    -5.28209    -1.76070
   115   1     1.76070    -5.28209    -1.76070
   116   1     5.28209    -5.28209    -1.76070
   117   1     8.80348    -5.28209    -1.76070
   118   2    12.32487    -5.28209    -1.76070
   119   1   -12.32487    -1.76070    -1.76070
   120   1    -8.80348    -1.76070    -1.76070
   121   1    -5.28209    -1.76070    -1.76070
   122   1    -1.76070    -1.76070    -1.76070
   123   1     1.76070    -1.76070    -1.76070
   124   1     5.28209    -1.76070    -1.76070
   125   1     8.80348    -1.76070    -1.76070
   126   1    12.32487    -1.76070    -1.76070
   127   1   -12.32487     1.76070    -1.76070
   128   1    -8.80348     1.76070    -1.76070
   129   1    -5.28209     1.76070    -1.76070
   130   1    -1.76070     1.76070    -1.76070
   131   1     1.76070     1.76070    -1.76070
   132   1     5.28209     1.76070    -1.76070
   133   1     8.80348     1.76070    -1.76070
   134   1    12.32487     1.76070    -1.76070
   135   2   -12.32487     5.28209    -1.76070
   136   1    -8.80348     5.28209    -1.76070
   137   1    -5.28209     5.28209    -1.76070
   138   1    -1.76070     5.28209    -1.76070
   139   1     1.76070     5.28209    -1.76070
   140   1     5.28209     5.28209    -1.76070
   141   1     8.80348     5.28209    -1.76070
   142   2    12.32487     5.28209    -1.76070
   143   1    -8.80348     8.80348    -1.76070
   144   1    -5.28209     8.80348    -1.76070
   145   1    -1.76070     8.80348    -1.76070
   146   1     1.76070     8.80348    -1.76070
   147   1     5.28209     8.80348    -1.76070
   148   1     8.80348     8.80348    -1.76070
   149   2    -5.28209    12.32487    -1.76070
   150   1    -1.76070    12.32487    -1.76070
   151   1     1.76070    12.32487    -1.76070
   152   2     5.28209    12.32487    -1.76070
   153   2    -5.28209   -12.32487     1.76070
   154   1    -1.76070   -12.32487     1.76070
   155   1     1.76070   -12.32487     1.76070
   156   2     5.28209   -12.32487     1.76070
   157   1    -8.80348    -8.80348     1.76070
   158   1    -5.28209    -8.80348     1.76070
   159   1    -1.76070    -8.80348     1.76070
   160   1     1.76070    -8.80348     1.76070
   161   1     5.28209    -8.80348     1.76070
   162   1     8.80348    -8.80348     1.76070
   163   2   -12.32487    -5.28209     1.76070
   164   1    -8.80348    -5.28209     1.76070
   165   1    -5.28209    -5.28209     1.76070
   166   1    -1.76070    -5.28209     1.76070
   167   1     1.76070    -5.28209     1.76070
   168   1     5.28209    -5.28209     1.76070
   169   1     8.80348    -5.28209     1.76070
   170   2    12.32487    -5.28209     1.76070
   171   1   -12.32487    -1.76070     1.76070
   172   1    -8.80348    -1.76070     1.76070
   173   1    -5.28209    -1.76070     1.76070
   174   1    -1.76070    -1.76070     1.76070
   175   1     1.76070    -1.76070     1.76070
   176   1     5.28209    -1.76070     1.76070
   177   1     8.80348    -1.76070     1.76070
   178   1    12.32487    -1.76070     1.76070
   179   1   -12.32487     1.76070     1.76070
   180   1    -8.80348     1.76070     1.76070
   181   1    -5.28209     1.76070     1.76070
   182   1    -1.76070     1.76070     1.76070
   183   1     1.76070     1.76070     1.76070
   184   1     5.28209     1.76070     1.76070
   185   1     8.80348     1.76070     1.76070
   186   1    12.32487     1.76070     1.76070
   187   2   -12.32487     5.28209     1.76070
   188   1    -8.80348     5.28209     1.76070
   189   1    -5.28209     5.28209     1.76070
   190   1    -1.76070     5.28209     1.76070
   191   1     1.76070     5.28209     1.76070
   192   1     5.28209     5.28209     1.76070
   193   1     8.80348     5.28209     1.76070
   194   2    12.32487     5.28209     1.76070
   195   1    -8.80348     8.80348     1.76070
   196   1    -5.28209     8.80348     1.76070
   197   1    -1.76070     8.80348     1.76070
   198   1     1.76070     8.80348     1.76070
   199   1     5.28209     8.80348     1.76070
   200   1     8.80348     8.80348     1.76070
   201   2    -5.28209    12.32487     1.76070
   202   1    -1.76070    12.32487     1.76070
   203   1     1.76070    12.32487     1.76070
   204   2     5.28209    12.32487     1.76070
   205   2    -5.28209   -12.32487     5.28209
   206   2    -1.76070   -12.32487     5.28209
   207   2     1.76070   -12.32487     5.28209
   208   2     5.28209   -12.32487     5.28209
   209   2    -8.80348    -8.80348     5.28209
   210   1    -5.28209    -8.80348     5.28209
   211   1    -1.76070    -8.80348     5.28209
   212   1     1.76070    -8.80348     5.28209
   213   1     5.28209    -8.80348     5.28209
   214   2     8.80348    -8.80348     5.28209
   215   2   -12.32487    -5.28209     5.28209
   216   1    -8.80348    -5.28209     5.28209
   217   1    -5.28209    -5.28209     5.28209
   218   1    -1.76070    -5.28209     5.28209
   219   1     1.76070    -5.28209     5.28209
   220   1     5.28209    -5.28209     5.28209
   221   1     8.80348    -5.28209     5.28209
   222   2    12.32487    -5.28209     5.28209
   223   2   -12.32487    -1.76070     5.28209
   224   1    -8.80348    -1.76070     5.28209
   225   1    -5.28209    -1.76070     5.28209
   226   1    -1.76070    -1.76070     5.28209
   227   1     1.76070    -1.76070     5.28209
   228   1     5.28209    -1.76070     5.28209
   229   1     8.80348    -1.76070     5.28209
   230   2    12.32487    -1.76070     5.28209
   231   2   -12.32487     1.76070     5.28209
   232   1    -8.80348     1.76070     5.28209
   233   1    -5.28209     1.76070     5.28209
   234   1    -1.76070     1.76070     5.28209
   235   1     1.76070     1.76070     5.28209
   236   1     5.28209     1.76070     5.28209
   237   1     8.80348     1.76070     5.28209
   238   2    12.32487     1.76070     5.28209
   239   2   -12.32487     5.28209     5.28209
   240   1    -8.80348     5.28209     5.28209
   241   1    -5.28209     5.28209     5.28209
   242   1    -1.76070     5.28209     5.28209
   243   1     1.76070     5.28209     5.28209
   244   1     5.28209     5.28209     5.28209
   245   1     8.80348     5.28209     5.28209
   246   2    12.32487     5.28209     5.28209
   247   2    -8.80348     8.80348     5.28209
   248   1    -5.28209     8.80348     5.28209
   249   1    -1.76070     8.80348     5.28209
   250   1     1.76070     8.80348     5.28209
   251   1     5.28209     8.80348     5.28209
   252   2     8.80348     8.80348     5.28209
   253   2    -5.28209    12.32487     5.28209
   254   2    -1.76070    12.32487     5.28209
   255   2     1.76070    12.32487     5.28209
   256   2     5.28209    12.32487     5.28209
   257   2    -5.28209    -8.80348     8.80348
   258   1    -1.76070    -8.80348     8.80348
   259   1     1.76070    -8.80348     8.80348
   260   2     5.28209    -8.80348     8.80348
   261   2    -8.80348    -5.28209     8.80348
   262   1    -5.28209    -5.28209     8.80348
   263   1    -1.76070    -5.28209     8.80348
   264   1     1.76070    -5.28209     8.80348
   265   1     5.28209    -5.28209     8.80348
   266   2     8.80348    -5.28209     8.80348
   267   1    -8.80348    -1.76070     8.80348
   268   1    -5.28209    -1.76070     8.80348
   269   1    -1.76070    -1.76070     8.80348
   270   1     1.76070    -1.76070     8.80348
   271   1     5.28209    -1.76070     8.80348
   272   1     8.80348    -1.76070     8.80348
   273   1    -8.80348     1.76070     8.80348
   274   1    -5.28209     1.76070     8.80348
   275   1    -1.76070     1.76070     8.80348
   276   1     1.76070     1.76070     8.80348
   277   1     5.28209     1.76070     8.80348
   278   1     8.80348     1.76070     8.80348
   279   2    -8.80348     5.28209     8.80348
   280   1    -5.28209     5.28209     8.80348
   281   1    -1.76070     5.28209     8.80348
   282   1     1.76070     5.28209     8.80348
   283   1     5.28209     5.28209     8.80348
   284   2     8.80348     5.28209     8.80348
   285   2    -5.28209     8.80348     8.80348
   286   1    -1.76070     8.80348     8.80348
   287   1     1.76070     8.80348     8.80348
   288   2     5.28209     8.80348     8.80348
   289   2    -5.28209    -5.28209    12.32487
   290   2    -1.76070    -5.28209    12.32487
   291   2     1.76070    -5.28209    12.32487
   292   2     5.28209    -5.28209    12.32487
   293   2    -5.28209    -1.76070    12.32487
   294   1    -1.76070    -1.76070    12.32487
   295   1     1.76070    -1.76070    12.32487
   296   2     5.28209    -1.76070    12.32487
   297   2    -5.28209     1.76070    12.32487
   298   1    -1.76070     1.76070    12.32487
   299   1     1.76070     1.76070    12.32487
   300   2     5.28209     1.76070    12.32487
   301   2    -5.28209     5.28209    12.32487
   302   2    -1.76070     5.28209    12.32487
   303   2     1.76070     5.28209    12.32487
   304   2     5.28209     5.28209    12.32487
   305   2    -3.52139    -7.04278   -12.32487
   306   2     0.00000    -7.04278   -12.32487
   307   2     3.52139    -7.04278   -12.32487
   308   2    -7.04278    -3.52139   -12.32487
   309   2    -3.52139    -3.52139   -12.32487
   310   2     0.00000    -3.52139   -12.32487
   311   2     3.52139    -3.52139   -12.32487
   312   2     7.04278    -3.52139   -12.32487
   313   2    -7.04278     0.00000   -12.32487
   314   2    -3.52139     0.00000   -12.32487
   315   1     0.00000     0.00000   -12.32487
   316   2     3.52139     0.00000   -12.32487
   317   2     7.04278     0.00000   -12.32487
   318   2    -7.04278     3.52139   -12.32487
   319   2    -3.52139     3.52139   -12.32487
   320   2     0.00000     3.52139   -12.32487
   321   2     3.52139     3.52139   -12.32487
   322   2     7.04278     3.52139   -12.32487
   323   2    -3.52139     7.04278   -12.32487
   324   2     0.00000     7.04278   -12.32487
   325   2     3.52139     7.04278   -12.32487
   326   2    -3.52139   -10.56418    -8.80348
   327   2     0.00000   -10.56418    -8.80348
   328   2     3.52139   -10.56418    -8.80348
   329   2    -7.04278    -7.04278    -8.80348
   330   1    -3.52139    -7.04278    -8.80348
   331   1     0.00000    -7.04278    -8.80348
   332   1     3.52139    -7.04278    -8.80348
   333   2     7.04278    -7.04278    -8.80348
   334   2   -10.56418    -3.52139    -8.80348
   335   1    -7.04278    -3.52139    -8.80348
   336   1    -3.52139    -3.52139    -8.80348
   337   1     0.00000    -3.52139    -8.80348
   338   1     3.52139    -3.52139    -8.80348
   339   1     7.04278    -3.52139    -8.80348
   340   2    10.56418    -3.52139    -8.80348
   341   2   -10.56418     0.00000    -8.80348
   342   1    -7.04278     0.00000    -8.80348
   343   1    -3.52139     0.00000    -8.80348
   344   1     0.00000     0.00000    -8.80348
   345   1     3.52139     0.00000    -8.80348
   346   1     7.04278     0.00000    -8.80348
   347   2    10.56418     0.00000    -8.80348
   348   2   -10.56418     3.52139    -8.80348
   349   1    -7.04278     3.52139    -8.80348
   350   1    -3.52139     3.52139    -8.80348
   351   1     0.00000     3.52139    -8.80348
   352   1     3.52139     3.52139    -8.80348
   353   1     7.04278     3.52139    -8.80348
   354   2    10.56418     3.52139    -8.80348
   355   2    -7.04278     7.04278    -8.80348
   356   1    -3.52139     7.04278    -8.80348
   357   1     0.00000     7.04278    -8.80348
   358   1     3.52139     7.04278    -8.80348
   359   2     7.04278     7.04278    -8.80348
   360   2    -3.52139    10.56418    -8.80348
   361   2     0.00000    10.56418    -8.80348
   362   2     3.52139    10.56418    -8.80348
   363   2    -7.04278   -10.56418    -5.28209
   364   1    -3.52139   -10.56418    -5.28209
   365   1     0.00000   -10.56418    -5.28209
   366   1     3.52139   -10.56418    -5.28209
   367   2     7.04278   -10.56418    -5.28209
   368   2   -10.56418    -7.04278    -5.28209
   369   1    -7.04278    -7.04278    -5.28209
   370   1    -3.52139    -7.04278    -5.28209
   371   1     0.00000    -7.04278    -5.28209
   372   1     3.52139    -7.04278    -5.28209
   373   1     7.04278    -7.04278    -5.28209
   374   2    10.56418    -7.04278    -5.28209
   375   1   -10.56418    -3.52139    -5.28209
   376   1    -7.04278    -3.52139    -5.28209
   377   1    -3.52139    -3.52139    -5.28209
   378   1     0.00000    -3.52139    -5.28209
   379   1     3.52139    -3.52139    -5.28209
   380   1     7.04278    -3.52139    -5.28209
   381   1    10.56418    -3.52139    -5.28209
   382   1   -10.56418     0.00000    -5.28209
   383   1    -7.04278     0.00000    -5.28209
   384   1    -3.52139     0.00000    -5.28209
   385   1     0.00000     0.00000    -5.28209
   386   1     3.52139     0.00000    -5.28209
   387   1     7.04278     0.00000    -5.28209
   388   1    10.56418     0.00000    -5.28209
   389   1   -10.56418     3.52139    -5.28209
   390   1    -7.04278     3.52139    -5.28209
   391   1    -3.52139     3.52139    -5.28209
   392   1     0.00000     3.52139    -5.28209
   393   1     3.52139     3.52139    -5.28209
   394   1     7.04278     3.52139    -5.28209
   395   1    10.56418     3.52139    -5.28209
   396   2   -10.56418     7.04278    -5.28209
   397   1    -7.04278     7.04278    -5.28209
   398   1    -3.52139     7.04278    -5.28209
   399   1     0.00000     7.04278    -5.28209
   400   1     3.52139     7.04278    -5.28209
   401   1     7.04278     7.04278    -5.28209
   402   2    10.56418     7.04278    -5.28209
   403   2    -7.04278    10.56418    -5.28209
   404   1    -3.52139    10.56418    -5.28209
   405   1     0.00000    10.56418    -5.28209
   406   1     3.52139    10.56418    -5.28209
   407   2     7.04278    10.56418    -5.28209
   408   2    -3.52139   -14.08557    -1.76070
   409   2     0.00000   -14.08557    -1.76070
   410   2     3.52139   -14.08557    -1.76070
   411   2    -7.04278   -10.56418    -1.76070
   412   1    -3.52139   -10.56418    -1.76070
   413   1     0.00000   -10.56418    -1.76070
   414   1     3.52139   -10.56418    -1.76070
   415   2     7.04278   -10.56418    -1.76070
   416   2   -10.56418    -7.04278    -1.76070
   417   1    -7.04278    -7.04278    -1.76070
   418   1    -3.52139    -7.04278    -1.76070
   419   1     0.00000    -7.04278    -1.76070
   420   1     3.52139    -7.04278    -1.76070
   421   1     7.04278    -7.04278    -1.76070
   422   2    10.56418    -7.04278    -1.76070
   423   2   -14.08557    -3.52139    -1.76070
   424   1   -10.56418    -3.52139    -1.76070
   425   1    -7.04278    -3.52139    -1.76070
   426   1    -3.52139    -3.52139    -1.76070
   427   1     0.00000    -3.52139    -1.76070
   428   1     3.52139    -3.52139    -1.76070
   429   1     7.04278    -3.52139    -1.76070
   430   1    10.56418    -3.52139    -1.76070
   431   2    14.08557    -3.52139    -1.76070
   432   2   -14.08557     0.00000    -1.76070
   433   1   -10.56418     0.00000    -1.76070
   434   1    -7.04278     0.00000    -1.76070
   435   1    -3.52139     0.00000    -1.76070
   436   1     0.00000     0.00000    -1.76070
   437   1     3.52139     0.00000    -1.76070
   438   1     7.04278     0.00000    -1.76070
   439   1    10.56418     0.00000    -1.76070
   440   2    14.08557     0.00000    -1.76070
   441   2   -14.08557     3.52139    -1.76070
   442   1   -10.56418     3.52139    -1.76070
   443   1    -7.04278     3.52139    -1.76070
   444   1    -3.52139     3.52139    -1.76070
   445   1     0.00000     3.52139    -1.76070
   446   1     3.52139     3.52139    -1.76070
   447   1     7.04278     3.52139    -1.76070
   448   1    10.56418     3.52139    -1.76070
   449   2    14.08557     3.52139    -1.76070
   450   2   -10.56418     7.04278    -1.76070
   451   1    -7.04278     7.04278    -1.76070
   452   1    -3.52139     7.04278    -1.76070
   453   1     0.00000     7.04278    -1.76070
   454   1     3.52139     7.04278    -1.76070
   455   1     7.04278     7.04278    -1.76070
   456   2    10.56418     7.04278    -1.76070
   457   2    -7.04278    10.56418    -1.76070
   458   1    -3.52139    10.56418    -1.76070
   459   1     0.00000    10.56418    -1.76070
   460   1     3.52139    10.56418    -1.76070
   461   2     7.04278    10.56418    -1.76070
   462   2    -3.52139    14.08557    -1.76070
   463   2     0.00000    14.08557    -1.76070
   464   2     3.52139    14.08557    -1.76070
   465   2    -3.52139   -14.08557     1.76070
   466   2     0.00000   -14.08557     1.76070
   467   2     3.52139   -14.08557     1.76070
   468   2    -7.04278   -10.56418     1.76070
   469   1    -3.52139   -10.56418     1.76070
   470   1     0.00000   -10.56418     1.76070
   471   1     3.52139   -10.56418     1.76070
   472   2     7.04278   -10.56418     1.76070
   473   2   -10.56418    -7.04278     1.76070
   474   1    -7.04278    -7.04278     1.76070
   475   1    -3.52139    -7.04278     1.76070
   476   1     0.00000    -7.04278     1.76070
   477   1     3.52139    -7.04278     1.76070
   478   1     7.04278    -7.04278     1.76070
   479   2    10.56418    -7.04278     1.76070
   480   2   -14.08557    -3.52139     1.76070
   481   1   -10.56418    -3.52139     1.76070
   482   1    -7.04278    -3.52139     1.76070
   483   1    -3.52139    -3.52139     1.76070
   484   1     0.00000    -3.52139     1.76070
   485   1     3.52139    -3.52139     1.76070
   486   1     7.04278    -3.52139     1.76070
   487   1    10.56418    -3.52139     1.76070
   488   2    14.08557    -3.52139     1.76070
   489   2   -14.08557     0.00000     1.76070
   490   1   -10.56418     0.00000     1.76070
   491   1    -7.04278     0.00000     1.76070
   492   1    -3.52139     0.00000     1.76070
   493   1     0.00000     0.00000     1.76070
   494   1     3.52139     0.00000     1.76070
   495   1     7.04278     0.00000     1.76070
   496   1    10.56418     0.00000     1.76070
   497   2    14.08557     0.00000     1.76070
   498   2   -14.08557     3.52139     1.76070
   499   1   -10.56418     3.52139     1.76070
   500   1    -7.04278     3.52139     1.76070
   501   1    -3.52139     3.52139     1.76070
   502   1     0.00000     3.52139     1.76070
   503   1     3.52139     3.52139     1.76070
   504   1     7.04278     3.52139     1.76070
   505   1    10.56418     3.52139     1.76070
   506   2    14.08557     3.52139     1.76070
   507   2   -10.56418     7.04278     1.76070
   508   1    -7.04278     7.04278     1.76070
   509   1    -3.52139     7.04278     1.76070
   510   1     0.00000     7.04278     1.76070
   511   1     3.52139     7.04278     1.76070
   512   1     7.04278     7.04278     1.76070
   513   2    10.56418     7.04278     1.76070
   514   2    -7.04278    10.56418     1.76070
   515   1    -3.52139    10.56418     1.76070
   516   1     0.00000    10.56418     1.76070
   517   1     3.52139    10.56418     1.76070
   518   2     7.04278    10.56418     1.76070
   519   2    -3.52139    14.08557     1.76070
   520   2     0.00000    14.08557     1.76070
   521   2     3.52139    14.08557     1.76070
   522   2    -7.04278   -10.56418     5.28209
   523   1    -3.52139   -10.56418     5.28209
   524   1     0.00000   -10.56418     5.28209
   525   1     3.52139   -10.56418     5.28209
   526   2     7.04278   -10.56418     5.28209
   527   2   -10.56418    -7.04278     5.28209
   528   1    -7.04278    -7.04278     5.28209
   529   1    -3.52139    -7.04278     5.28209
   530   1     0.00000    -7.04278     5.28209
   531   1     3.52139    -7.04278     5.28209
   532   1     7.04278    -7.04278     5.28209
   533   2    10.56418    -7.04278     5.28209
   534   1   -10.56418    -3.52139     5.28209
   535   1    -7.04278    -3.52139     5.28209
   536   1    -3.52139    -3.52139     5.28209
   537   1     0.00000    -3.52139     5.28209
   538   1     3.52139    -3.52139     5.28209
   539   1     7.04278    -3.52139     5.28209
   540   1    10.56418    -3.52139     5.28209
   541   1   -10.56418     0.00000     5.28209
   542   1    -7.04278     0.00000     5.28209
   543   1    -3.52139     0.00000     5.28209
   544   1     0.00000     0.00000     5.28209
   545   1     3.52139     0.00000     5.28209
   546   1     7.04278     0.00000     5.28209
   547   1    10.56418     0.00000     5.28209
   548   1   -10.56418     3.52139     5.28209
   549   1    -7.04278     3.52139     5.28209
   550   1    -3.52139     3.52139     5.28209
   551   1     0.00000     3.52139     5.28209
   552   1     3.52139     3.52139     5.28209
   553   1     7.04278     3.52139     5.28209
   554   1    10.56418     3.52139     5.28209
   555   2   -10.56418     7.04278     5.28209
   556   1    -7.04278     7.04278     5.28209
   557   1    -3.52139     7.04278     5.28209
   558   1     0.00000     7.04278     5.28209
   559   1     3.52139     7.04278     5.28209
   560   1     7.04278     7.04278     5.28209
   561   2    10.56418     7.04278     5.28209
   562   2    -7.04278    10.56418     5.28209
   563   1    -3.52139    10.56418     5.28209
   564   1     0.00000    10.56418     5.28209
   565   1     3.52139    10.56418     5.28209
   566   2     7.04278    10.56418     5.28209
   567   2    -3.52139   -10.56418     8.80348
   568   2     0.00000   -10.56418     8.80348
   569   2     3.52139   -10.56418     8.80348
   570   2    -7.04278    -7.04278     8.80348
   571   1    -3.52139    -7.04278     8.80348
   572   1     0.00000    -7.04278     8.80348
   573   1     3.52139    -7.04278     8.80348
   574   2     7.04278    -7.04278     8.80348
   575   2   -10.56418    -3.52139     8.80348
   576   1    -7.04278    -3.52139     8.80348
   577   1    -3.52139    -3.52139     8.80348
   578   1     0.00000    -3.52139     8.80348
   579   1     3.52139    -3.52139     8.80348
   580   1     7.04278    -3.52139     8.80348
   581   2    10.56418    -3.52139     8.80348
   582   2   -10.56418     0.00000     8.80348
   583   1    -7.04278     0.00000     8.80348
   584   1    -3.52139     0.00000     8.80348
   585   1     0.00000     0.00000     8.80348
   586   1     3.52139     0.00000     8.80348
   587   1     7.04278     0.00000     8.80348
   588   2    10.56418     0.00000     8.80348
   589   2   -10.56418     3.52139     8.80348
   590   1    -7.04278     3.52139     8.80348
   591   1    -3.52139     3.52139     8.80348
   592   1     0.00000     3.52139     8.80348
   593   1     3.52139     3.52139     8.80348
   594   1     7.04278     3.52139     8.80348
   595   2    10.56418     3.52139     8.80348
   596   2    -7.04278     7.04278     8.80348
   597   1    -3.52139     7.04278     8.80348
   598   1     0.00000     7.04278     8.80348
   599   1     3.52139     7.04278     8.80348
   600   2     7.04278     7.04278     8.80348
   601   2    -3.52139    10.56418     8.80348
   602   2     0.00000    10.56418     8.80348
   603   2     3.52139    10.56418     8.80348
   604   2    -3.52139    -7.04278    12.32487
   605   2     0.00000    -7.04278    12.32487
   606   2     3.52139    -7.04278    12.32487
   607   2    -7.04278    -3.52139    12.32487
   608   2    -3.52139    -3.52139    12.32487
   609   2     0.00000    -3.52139    12.32487
   610   2     3.52139    -3.52139    12.32487
   611   2     7.04278    -3.52139    12.32487
   612   2    -7.04278     0.00000    12.32487
   613   2    -3.52139     0.00000    12.32487
   614   1     0.00000     0.00000    12.32487
   615   2     3.52139     0.00000    12.32487
   616   2     7.04278     0.00000    12.32487
   617   2    -7.04278     3.52139    12.32487
   618   2    -3.52139     3.52139    12.32487
   619   2     0.00000     3.52139    12.32487
   620   2     3.52139     3.52139    12.32487
   621   2     7.04278     3.52139    12.32487
   622   2    -3.52139     7.04278    12.32487
   623   2     0.00000     7.04278    12.32487
   624   2     3.52139     7.04278    12.32487
   625   2    -3.52139   -12.32487    -7.04278
   626   2     0.00000   -12.32487    -7.04278
   627   2     3.52139   -12.32487    -7.04278
   628   2    -7.04278   -12.32487    -3.52139
   629   2    -3.52139   -12.32487    -3.52139
   630   2     0.00000   -12.32487    -3.52139
   631   2     3.52139   -12.32487    -3.52139
   632   2     7.04278   -12.32487    -3.52139
   633   2    -7.04278   -12.32487     0.00000
   634   2    -3.52139   -12.32487     0.00000