LAMMPS DATA FOR MEAM SIMULATION

   4321   atoms
      3   atom types

  -33.55   33.55   xlo xhi
  -33.55   33.55   ylo yhi
  -33.55   33.55   zlo zhi

 Atoms

     1   1     0.00000    -7.84889   -23.54666
     2   2    -3.92444    -3.92444   -23.54666
     3   2     0.00000    -3.92444   -23.54666
     4   3     3.92444    -3.92444   -23.54666
     5   2    -7.84889     0.00000   -23.54666
     6   3    -3.92444     0.00000   -23.54666
     7   2     0.00000     0.00000   -23.54666
     8   2     3.92444     0.00000   -23.54666
     9   1     7.84889     0.00000   -23.54666
    10   1    -3.92444     3.92444   -23.54666
    11   3     0.00000     3.92444   -23.54666
    12   2     3.92444     3.92444   -23.54666
    13   1     0.00000     7.84889   -23.54666
    14   2    -7.84889   -11.77333   -19.62221
    15   3    -3.92444   -11.77333   -19.62221
    16   2     0.00000   -11.77333   -19.62221
    17   3     3.92444   -11.77333   -19.62221
    18   1     7.84889   -11.77333   -19.62221
    19   2   -11.77333    -7.84889   -19.62221
    20   2    -7.84889    -7.84889   -19.62221
    21   2    -3.92444    -7.84889   -19.62221
    22   1     0.00000    -7.84889   -19.62221
    23   2     3.92444    -7.84889   -19.62221
    24   1     7.84889    -7.84889   -19.62221
    25   1    11.77333    -7.84889   -19.62221
    26   2   -11.77333    -3.92444   -19.62221
    27   3    -7.84889    -3.92444   -19.62221
    28   1    -3.92444    -3.92444   -19.62221
    29   3     0.00000    -3.92444   -19.62221
    30   2     3.92444    -3.92444   -19.62221
    31   2     7.84889    -3.92444   -19.62221
    32   3    11.77333    -3.92444   -19.62221
    33   2   -11.77333     0.00000   -19.62221
    34   1    -7.84889     0.00000   -19.62221
    35   2    -3.92444     0.00000   -19.62221
    36   1     0.00000     0.00000   -19.62221
    37   1     3.92444     0.00000   -19.62221
    38   2     7.84889     0.00000   -19.62221
    39   2    11.77333     0.00000   -19.62221
    40   2   -11.77333     3.92444   -19.62221
    41   2    -7.84889     3.92444   -19.62221
    42   1    -3.92444     3.92444   -19.62221
    43   2     0.00000     3.92444   -19.62221
    44   3     3.92444     3.92444   -19.62221
    45   3     7.84889     3.92444   -19.62221
    46   1    11.77333     3.92444   -19.62221
    47   1   -11.77333     7.84889   -19.62221
    48   2    -7.84889     7.84889   -19.62221
    49   1    -3.92444     7.84889   -19.62221
    50   2     0.00000     7.84889   -19.62221
    51   2     3.92444     7.84889   -19.62221
    52   1     7.84889     7.84889   -19.62221
    53   2    11.77333     7.84889   -19.62221
    54   2    -7.84889    11.77333   -19.62221
    55   2    -3.92444    11.77333   -19.62221
    56   1     0.00000    11.77333   -19.62221
    57   2     3.92444    11.77333   -19.62221
    58   1     7.84889    11.77333   -19.62221
    59   3    -7.84889   -15.69777   -15.69777
    60   2    -3.92444   -15.69777   -15.69777
    61   2     0.00000   -15.69777   -15.69777
    62   2     3.92444   -15.69777   -15.69777
    63   3     7.84889   -15.69777   -15.69777
    64   1   -11.77333   -11.77333   -15.69777
    65   2    -7.84889   -11.77333   -15.69777
    66   2    -3.92444   -11.77333   -15.69777
    67   1     0.00000   -11.77333   -15.69777
    68   2     3.92444   -11.77333   -15.69777
    69   2     7.84889   -11.77333   -15.69777
    70   1    11.77333   -11.77333   -15.69777
    71   1   -15.69777    -7.84889   -15.69777
    72   2   -11.77333    -7.84889   -15.69777
    73   3    -7.84889    -7.84889   -15.69777
    74   2    -3.92444    -7.84889   -15.69777
    75   3     0.00000    -7.84889   -15.69777
    76   1     3.92444    -7.84889   -15.69777
    77   1     7.84889    -7.84889   -15.69777
    78   2    11.77333    -7.84889   -15.69777
    79   1    15.69777    -7.84889   -15.69777
    80   3   -15.69777    -3.92444   -15.69777
    81   2   -11.77333    -3.92444   -15.69777
    82   2    -7.84889    -3.92444   -15.69777
    83   2    -3.92444    -3.92444   -15.69777
    84   1     0.00000    -3.92444   -15.69777
    85   3     3.92444    -3.92444   -15.69777
    86   2     7.84889    -3.92444   -15.69777
    87   3    11.77333    -3.92444   -15.69777
    88   2    15.69777    -3.92444   -15.69777
    89   2   -15.69777     0.00000   -15.69777
    90   2   -11.77333     0.00000   -15.69777
    91   1    -7.84889     0.00000   -15.69777
    92   1    -3.92444     0.00000   -15.69777
    93   2     0.00000     0.00000   -15.69777
    94   3     3.92444     0.00000   -15.69777
    95   2     7.84889     0.00000   -15.69777
    96   2    11.77333     0.00000   -15.69777
    97   3    15.69777     0.00000   -15.69777
    98   2   -15.69777     3.92444   -15.69777
    99   1   -11.77333     3.92444   -15.69777
   100   2    -7.84889     3.92444   -15.69777
   101   3    -3.92444     3.92444   -15.69777
   102   2     0.00000     3.92444   -15.69777
   103   3     3.92444     3.92444   -15.69777
   104   2     7.84889     3.92444   -15.69777
   105   3    11.77333     3.92444   -15.69777
   106   3    15.69777     3.92444   -15.69777
   107   2   -15.69777     7.84889   -15.69777
   108   2   -11.77333     7.84889   -15.69777
   109   1    -7.84889     7.84889   -15.69777
   110   2    -3.92444     7.84889   -15.69777
   111   2     0.00000     7.84889   -15.69777
   112   1     3.92444     7.84889   -15.69777
   113   3     7.84889     7.84889   -15.69777
   114   3    11.77333     7.84889   -15.69777
   115   3    15.69777     7.84889   -15.69777
   116   3   -11.77333    11.77333   -15.69777
   117   2    -7.84889    11.77333   -15.69777
   118   3    -3.92444    11.77333   -15.69777
   119   3     0.00000    11.77333   -15.69777
   120   2     3.92444    11.77333   -15.69777
   121   1     7.84889    11.77333   -15.69777
   122   2    11.77333    11.77333   -15.69777
   123   1    -7.84889    15.69777   -15.69777
   124   2    -3.92444    15.69777   -15.69777
   125   1     0.00000    15.69777   -15.69777
   126   2     3.92444    15.69777   -15.69777
   127   2     7.84889    15.69777   -15.69777
   128   2    -7.84889   -19.62221   -11.77333
   129   2    -3.92444   -19.62221   -11.77333
   130   1     0.00000   -19.62221   -11.77333
   131   2     3.92444   -19.62221   -11.77333
   132   3     7.84889   -19.62221   -11.77333
   133   3   -11.77333   -15.69777   -11.77333
   134   3    -7.84889   -15.69777   -11.77333
   135   2    -3.92444   -15.69777   -11.77333
   136   2     0.00000   -15.69777   -11.77333
   137   2     3.92444   -15.69777   -11.77333
   138   1     7.84889   -15.69777   -11.77333
   139   2    11.77333   -15.69777   -11.77333
   140   1   -15.69777   -11.77333   -11.77333
   141   2   -11.77333   -11.77333   -11.77333
   142   1    -7.84889   -11.77333   -11.77333
   143   3    -3.92444   -11.77333   -11.77333
   144   2     0.00000   -11.77333   -11.77333
   145   2     3.92444   -11.77333   -11.77333
   146   2     7.84889   -11.77333   -11.77333
   147   1    11.77333   -11.77333   -11.77333
   148   3    15.69777   -11.77333   -11.77333
   149   2   -19.62221    -7.84889   -11.77333
   150   2   -15.69777    -7.84889   -11.77333
   151   1   -11.77333    -7.84889   -11.77333
   152   3    -7.84889    -7.84889   -11.77333
   153   1    -3.92444    -7.84889   -11.77333
   154   2     0.00000    -7.84889   -11.77333
   155   2     3.92444    -7.84889   -11.77333
   156   1     7.84889    -7.84889   -11.77333
   157   1    11.77333    -7.84889   -11.77333
   158   1    15.69777    -7.84889   -11.77333
   159   2    19.62221    -7.84889   -11.77333
   160   2   -19.62221    -3.92444   -11.77333
   161   2   -15.69777    -3.92444   -11.77333
   162   1   -11.77333    -3.92444   -11.77333
   163   2    -7.84889    -3.92444   -11.77333
   164   2    -3.92444    -3.92444   -11.77333
   165   1     0.00000    -3.92444   -11.77333
   166   2     3.92444    -3.92444   -11.77333
   167   3     7.84889    -3.92444   -11.77333
   168   1    11.77333    -3.92444   -11.77333
   169   3    15.69777    -3.92444   -11.77333
   170   2    19.62221    -3.92444   -11.77333
   171   2   -19.62221     0.00000   -11.77333
   172   2   -15.69777     0.00000   -11.77333
   173   2   -11.77333     0.00000   -11.77333
   174   3    -7.84889     0.00000   -11.77333
   175   3    -3.92444     0.00000   -11.77333
   176   1     0.00000     0.00000   -11.77333
   177   1     3.92444     0.00000   -11.77333
   178   1     7.84889     0.00000   -11.77333
   179   3    11.77333     0.00000   -11.77333
   180   2    15.69777     0.00000   -11.77333
   181   1    19.62221     0.00000   -11.77333
   182   1   -19.62221     3.92444   -11.77333
   183   2   -15.69777     3.92444   -11.77333
   184   1   -11.77333     3.92444   -11.77333
   185   1    -7.84889     3.92444   -11.77333
   186   3    -3.92444     3.92444   -11.77333
   187   1     0.00000     3.92444   -11.77333
   188   3     3.92444     3.92444   -11.77333
   189   1     7.84889     3.92444   -11.77333
   190   2    11.77333     3.92444   -11.77333
   191   2    15.69777     3.92444   -11.77333
   192   1    19.62221     3.92444   -11.77333
   193   1   -19.62221     7.84889   -11.77333
   194   1   -15.69777     7.84889   -11.77333
   195   2   -11.77333     7.84889   -11.77333
   196   2    -7.84889     7.84889   -11.77333
   197   2    -3.92444     7.84889   -11.77333
   198   2     0.00000     7.84889   -11.77333
   199   3     3.92444     7.84889   -11.77333
   200   2     7.84889     7.84889   -11.77333
   201   2    11.77333     7.84889   -11.77333
   202   2    15.69777     7.84889   -11.77333
   203   1    19.62221     7.84889   -11.77333
   204   3   -15.69777    11.77333   -11.77333
   205   1   -11.77333    11.77333   -11.77333
   206   2    -7.84889    11.77333   -11.77333
   207   2    -3.92444    11.77333   -11.77333
   208   1     0.00000    11.77333   -11.77333
   209   3     3.92444    11.77333   -11.77333
   210   1     7.84889    11.77333   -11.77333
   211   3    11.77333    11.77333   -11.77333
   212   2    15.69777    11.77333   -11.77333
   213   2   -11.77333    15.69777   -11.77333
   214   2    -7.84889    15.69777   -11.77333
   215   1    -3.92444    15.69777   -11.77333
   216   2     0.00000    15.69777   -11.77333
   217   3     3.92444    15.69777   -11.77333
   218   3     7.84889    15.69777   -11.77333
   219   2    11.77333    15.69777   -11.77333
   220   3    -7.84889    19.62221   -11.77333
   221   3    -3.92444    19.62221   -11.77333
   222   3     0.00000    19.62221   -11.77333
   223   2     3.92444    19.62221   -11.77333
   224   3     7.84889    19.62221   -11.77333
   225   1     0.00000   -23.54666    -7.84889
   226   2   -11.77333   -19.62221    -7.84889
   227   1    -7.84889   -19.62221    -7.84889
   228   2    -3.92444   -19.62221    -7.84889
   229   1     0.00000   -19.62221    -7.84889
   230   3     3.92444   -19.62221    -7.84889
   231   3     7.84889   -19.62221    -7.84889
   232   2    11.77333   -19.62221    -7.84889
   233   1   -15.69777   -15.69777    -7.84889
   234   1   -11.77333   -15.69777    -7.84889
   235   2    -7.84889   -15.69777    -7.84889
   236   2    -3.92444   -15.69777    -7.84889
   237   2     0.00000   -15.69777    -7.84889
   238   1     3.92444   -15.69777    -7.84889
   239   2     7.84889   -15.69777    -7.84889
   240   1    11.77333   -15.69777    -7.84889
   241   2    15.69777   -15.69777    -7.84889
   242   1   -19.62221   -11.77333    -7.84889
   243   2   -15.69777   -11.77333    -7.84889
   244   1   -11.77333   -11.77333    -7.84889
   245   3    -7.84889   -11.77333    -7.84889
   246   1    -3.92444   -11.77333    -7.84889
   247   3     0.00000   -11.77333    -7.84889
   248   2     3.92444   -11.77333    -7.84889
   249   2     7.84889   -11.77333    -7.84889
   250   2    11.77333   -11.77333    -7.84889
   251   1    15.69777   -11.77333    -7.84889
   252   2    19.62221   -11.77333    -7.84889
   253   3   -19.62221    -7.84889    -7.84889
   254   3   -15.69777    -7.84889    -7.84889
   255   2   -11.77333    -7.84889    -7.84889
   256   1    -7.84889    -7.84889    -7.84889
   257   2    -3.92444    -7.84889    -7.84889
   258   2     0.00000    -7.84889    -7.84889
   259   1     3.92444    -7.84889    -7.84889
   260   3     7.84889    -7.84889    -7.84889
   261   3    11.77333    -7.84889    -7.84889
   262   1    15.69777    -7.84889    -7.84889
   263   2    19.62221    -7.84889    -7.84889
   264   1   -19.62221    -3.92444    -7.84889
   265   1   -15.69777    -3.92444    -7.84889
   266   1   -11.77333    -3.92444    -7.84889
   267   1    -7.84889    -3.92444    -7.84889
   268   1    -3.92444    -3.92444    -7.84889
   269   1     0.00000    -3.92444    -7.84889
   270   1     3.92444    -3.92444    -7.84889
   271   2     7.84889    -3.92444    -7.84889
   272   1    11.77333    -3.92444    -7.84889
   273   2    15.69777    -3.92444    -7.84889
   274   2    19.62221    -3.92444    -7.84889
   275   2   -23.54666     0.00000    -7.84889
   276   1   -19.62221     0.00000    -7.84889
   277   3   -15.69777     0.00000    -7.84889
   278   2   -11.77333     0.00000    -7.84889
   279   3    -7.84889     0.00000    -7.84889
   280   3    -3.92444     0.00000    -7.84889
   281   2     0.00000     0.00000    -7.84889
   282   1     3.92444     0.00000    -7.84889
   283   2     7.84889     0.00000    -7.84889
   284   1    11.77333     0.00000    -7.84889
   285   1    15.69777     0.00000    -7.84889
   286   2    19.62221     0.00000    -7.84889
   287   2    23.54666     0.00000    -7.84889
   288   1   -19.62221     3.92444    -7.84889
   289   2   -15.69777     3.92444    -7.84889
   290   1   -11.77333     3.92444    -7.84889
   291   1    -7.84889     3.92444    -7.84889
   292   3    -3.92444     3.92444    -7.84889
   293   2     0.00000     3.92444    -7.84889
   294   2     3.92444     3.92444    -7.84889
   295   1     7.84889     3.92444    -7.84889
   296   3    11.77333     3.92444    -7.84889
   297   2    15.69777     3.92444    -7.84889
   298   3    19.62221     3.92444    -7.84889
   299   1   -19.62221     7.84889    -7.84889
   300   1   -15.69777     7.84889    -7.84889
   301   1   -11.77333     7.84889    -7.84889
   302   2    -7.84889     7.84889    -7.84889
   303   2    -3.92444     7.84889    -7.84889
   304   2     0.00000     7.84889    -7.84889
   305   1     3.92444     7.84889    -7.84889
   306   2     7.84889     7.84889    -7.84889
   307   3    11.77333     7.84889    -7.84889
   308   3    15.69777     7.84889    -7.84889
   309   1    19.62221     7.84889    -7.84889
   310   1   -19.62221    11.77333    -7.84889
   311   3   -15.69777    11.77333    -7.84889
   312   2   -11.77333    11.77333    -7.84889
   313   1    -7.84889    11.77333    -7.84889
   314   2    -3.92444    11.77333    -7.84889
   315   2     0.00000    11.77333    -7.84889
   316   1     3.92444    11.77333    -7.84889
   317   1     7.84889    11.77333    -7.84889
   318   3    11.77333    11.77333    -7.84889
   319   2    15.69777    11.77333    -7.84889
   320   2    19.62221    11.77333    -7.84889
   321   1   -15.69777    15.69777    -7.84889
   322   1   -11.77333    15.69777    -7.84889
   323   2    -7.84889    15.69777    -7.84889
   324   3    -3.92444    15.69777    -7.84889
   325   1     0.00000    15.69777    -7.84889
   326   2     3.92444    15.69777    -7.84889
   327   1     7.84889    15.69777    -7.84889
   328   3    11.77333    15.69777    -7.84889
   329   2    15.69777    15.69777    -7.84889
   330   1   -11.77333    19.62221    -7.84889
   331   1    -7.84889    19.62221    -7.84889
   332   2    -3.92444    19.62221    -7.84889
   333   2     0.00000    19.62221    -7.84889
   334   1     3.92444    19.62221    -7.84889
   335   1     7.84889    19.62221    -7.84889
   336   3    11.77333    19.62221    -7.84889
   337   3     0.00000    23.54666    -7.84889
   338   2    -3.92444   -23.54666    -3.92444
   339   2     0.00000   -23.54666    -3.92444
   340   1     3.92444   -23.54666    -3.92444
   341   2   -11.77333   -19.62221    -3.92444
   342   3    -7.84889   -19.62221    -3.92444
   343   2    -3.92444   -19.62221    -3.92444
   344   3     0.00000   -19.62221    -3.92444
   345   2     3.92444   -19.62221    -3.92444
   346   1     7.84889   -19.62221    -3.92444
   347   2    11.77333   -19.62221    -3.92444
   348   2   -15.69777   -15.69777    -3.92444
   349   3   -11.77333   -15.69777    -3.92444
   350   3    -7.84889   -15.69777    -3.92444
   351   3    -3.92444   -15.69777    -3.92444
   352   2     0.00000   -15.69777    -3.92444
   353   1     3.92444   -15.69777    -3.92444
   354   2     7.84889   -15.69777    -3.92444
   355   1    11.77333   -15.69777    -3.92444
   356   2    15.69777   -15.69777    -3.92444
   357   2   -19.62221   -11.77333    -3.92444
   358   2   -15.69777   -11.77333    -3.92444
   359   2   -11.77333   -11.77333    -3.92444
   360   2    -7.84889   -11.77333    -3.92444
   361   2    -3.92444   -11.77333    -3.92444
   362   3     0.00000   -11.77333    -3.92444
   363   3     3.92444   -11.77333    -3.92444
   364   3     7.84889   -11.77333    -3.92444
   365   1    11.77333   -11.77333    -3.92444
   366   3    15.69777   -11.77333    -3.92444
   367   3    19.62221   -11.77333    -3.92444
   368   2   -19.62221    -7.84889    -3.92444
   369   3   -15.69777    -7.84889    -3.92444
   370   3   -11.77333    -7.84889    -3.92444
   371   1    -7.84889    -7.84889    -3.92444
   372   3    -3.92444    -7.84889    -3.92444
   373   3     0.00000    -7.84889    -3.92444
   374   3     3.92444    -7.84889    -3.92444
   375   3     7.84889    -7.84889    -3.92444
   376   2    11.77333    -7.84889    -3.92444
   377   3    15.69777    -7.84889    -3.92444
   378   2    19.62221    -7.84889    -3.92444
   379   2   -23.54666    -3.92444    -3.92444
   380   1   -19.62221    -3.92444    -3.92444
   381   1   -15.69777    -3.92444    -3.92444
   382   1   -11.77333    -3.92444    -3.92444
   383   3    -7.84889    -3.92444    -3.92444
   384   3    -3.92444    -3.92444    -3.92444
   385   1     0.00000    -3.92444    -3.92444
   386   1     3.92444    -3.92444    -3.92444
   387   3     7.84889    -3.92444    -3.92444
   388   3    11.77333    -3.92444    -3.92444
   389   3    15.69777    -3.92444    -3.92444
   390   3    19.62221    -3.92444    -3.92444
   391   2    23.54666    -3.92444    -3.92444
   392   1   -23.54666     0.00000    -3.92444
   393   2   -19.62221     0.00000    -3.92444
   394   3   -15.69777     0.00000    -3.92444
   395   1   -11.77333     0.00000    -3.92444
   396   2    -7.84889     0.00000    -3.92444
   397   3    -3.92444     0.00000    -3.92444
   398   3     0.00000     0.00000    -3.92444
   399   3     3.92444     0.00000    -3.92444
   400   2     7.84889     0.00000    -3.92444
   401   2    11.77333     0.00000    -3.92444
   402   2    15.69777     0.00000    -3.92444
   403   2    19.62221     0.00000    -3.92444
   404   1    23.54666     0.00000    -3.92444
   405   3   -23.54666     3.92444    -3.92444
   406   1   -19.62221     3.92444    -3.92444
   407   3   -15.69777     3.92444    -3.92444
   408   1   -11.77333     3.92444    -3.92444
   409   2    -7.84889     3.92444    -3.92444
   410   2    -3.92444     3.92444    -3.92444
   411   3     0.00000     3.92444    -3.92444
   412   2     3.92444     3.92444    -3.92444
   413   1     7.84889     3.92444    -3.92444
   414   3    11.77333     3.92444    -3.92444
   415   3    15.69777     3.92444    -3.92444
   416   3    19.62221     3.92444    -3.92444
   417   2    23.54666     3.92444    -3.92444
   418   2   -19.62221     7.84889    -3.92444
   419   3   -15.69777     7.84889    -3.92444
   420   2   -11.77333     7.84889    -3.92444
   421   3    -7.84889     7.84889    -3.92444
   422   2    -3.92444     7.84889    -3.92444
   423   3     0.00000     7.84889    -3.92444
   424   3     3.92444     7.84889    -3.92444
   425   3     7.84889     7.84889    -3.92444
   426   2    11.77333     7.84889    -3.92444
   427   2    15.69777     7.84889    -3.92444
   428   2    19.62221     7.84889    -3.92444
   429   2   -19.62221    11.77333    -3.92444
   430   2   -15.69777    11.77333    -3.92444
   431   3   -11.77333    11.77333    -3.92444
   432   1    -7.84889    11.77333    -3.92444
   433   1    -3.92444    11.77333    -3.92444
   434   1     0.00000    11.77333    -3.92444
   435   3     3.92444    11.77333    -3.92444
   436   2     7.84889    11.77333    -3.92444
   437   2    11.77333    11.77333    -3.92444
   438   1    15.69777    11.77333    -3.92444
   439   2    19.62221    11.77333    -3.92444
   440   1   -15.69777    15.69777    -3.92444
   441   3   -11.77333    15.69777    -3.92444
   442   3    -7.84889    15.69777    -3.92444
   443   1    -3.92444    15.69777    -3.92444
   444   1     0.00000    15.69777    -3.92444
   445   2     3.92444    15.69777    -3.92444
   446   2     7.84889    15.69777    -3.92444
   447   2    11.77333    15.69777    -3.92444
   448   2    15.69777    15.69777    -3.92444
   449   3   -11.77333    19.62221    -3.92444
   450   3    -7.84889    19.62221    -3.92444
   451   3    -3.92444    19.62221    -3.92444
   452   2     0.00000    19.62221    -3.92444
   453   3     3.92444    19.62221    -3.92444
   454   1     7.84889    19.62221    -3.92444
   455   1    11.77333    19.62221    -3.92444
   456   1    -3.92444    23.54666    -3.92444
   457   1     0.00000    23.54666    -3.92444
   458   2     3.92444    23.54666    -3.92444
   459   2    -7.84889   -23.54666     0.00000
   460   2    -3.92444   -23.54666     0.00000
   461   2     0.00000   -23.54666     0.00000
   462   2     3.92444   -23.54666     0.00000
   463   2     7.84889   -23.54666     0.00000
   464   2   -11.77333   -19.62221     0.00000
   465   2    -7.84889   -19.62221     0.00000
   466   1    -3.92444   -19.62221     0.00000
   467   2     0.00000   -19.62221     0.00000
   468   2     3.92444   -19.62221     0.00000
   469   2     7.84889   -19.62221     0.00000
   470   2    11.77333   -19.62221     0.00000
   471   2   -15.69777   -15.69777     0.00000
   472   3   -11.77333   -15.69777     0.00000
   473   2    -7.84889   -15.69777     0.00000
   474   2    -3.92444   -15.69777     0.00000
   475   1     0.00000   -15.69777     0.00000
   476   2     3.92444   -15.69777     0.00000
   477   2     7.84889   -15.69777     0.00000
   478   2    11.77333   -15.69777     0.00000
   479   3    15.69777   -15.69777     0.00000
   480   3   -19.62221   -11.77333     0.00000
   481   3   -15.69777   -11.77333     0.00000
   482   3   -11.77333   -11.77333     0.00000
   483   1    -7.84889   -11.77333     0.00000
   484   3    -3.92444   -11.77333     0.00000
   485   1     0.00000   -11.77333     0.00000
   486   2     3.92444   -11.77333     0.00000
   487   2     7.84889   -11.77333     0.00000
   488   1    11.77333   -11.77333     0.00000
   489   2    15.69777   -11.77333     0.00000
   490   2    19.62221   -11.77333     0.00000
   491   1   -23.54666    -7.84889     0.00000
   492   3   -19.62221    -7.84889     0.00000
   493   3   -15.69777    -7.84889     0.00000
   494   2   -11.77333    -7.84889     0.00000
   495   3    -7.84889    -7.84889     0.00000
   496   1    -3.92444    -7.84889     0.00000
   497   3     0.00000    -7.84889     0.00000
   498   3     3.92444    -7.84889     0.00000
   499   2     7.84889    -7.84889     0.00000
   500   1    11.77333    -7.84889     0.00000
   501   2    15.69777    -7.84889     0.00000
   502   1    19.62221    -7.84889     0.00000
   503   2    23.54666    -7.84889     0.00000
   504   3   -23.54666    -3.92444     0.00000
   505   2   -19.62221    -3.92444     0.00000
   506   2   -15.69777    -3.92444     0.00000
   507   2   -11.77333    -3.92444     0.00000
   508   2    -7.84889    -3.92444     0.00000
   509   3    -3.92444    -3.92444     0.00000
   510   2     0.00000    -3.92444     0.00000
   511   1     3.92444    -3.92444     0.00000
   512   3     7.84889    -3.92444     0.00000
   513   1    11.77333    -3.92444     0.00000
   514   2    15.69777    -3.92444     0.00000
   515   2    19.62221    -3.92444     0.00000
   516   3    23.54666    -3.92444     0.00000
   517   1   -23.54666     0.00000     0.00000
   518   2   -19.62221     0.00000     0.00000
   519   2   -15.69777     0.00000     0.00000
   520   1   -11.77333     0.00000     0.00000
   521   1    -7.84889     0.00000     0.00000
   522   3    -3.92444     0.00000     0.00000
   523   3     0.00000     0.00000     0.00000
   524   3     3.92444     0.00000     0.00000
   525   2     7.84889     0.00000     0.00000
   526   3    11.77333     0.00000     0.00000
   527   1    15.69777     0.00000     0.00000
   528   1    19.62221     0.00000     0.00000
   529   2    23.54666     0.00000     0.00000
   530   1   -23.54666     3.92444     0.00000
   531   3   -19.62221     3.92444     0.00000
   532   2   -15.69777     3.92444     0.00000
   533   2   -11.77333     3.92444     0.00000
   534   2    -7.84889     3.92444     0.00000
   535   2    -3.92444     3.92444     0.00000
   536   3     0.00000     3.92444     0.00000
   537   3     3.92444     3.92444     0.00000
   538   2     7.84889     3.92444     0.00000
   539   2    11.77333     3.92444     0.00000
   540   3    15.69777     3.92444     0.00000
   541   1    19.62221     3.92444     0.00000
   542   3    23.54666     3.92444     0.00000
   543   2   -23.54666     7.84889     0.00000
   544   3   -19.62221     7.84889     0.00000
   545   3   -15.69777     7.84889     0.00000
   546   1   -11.77333     7.84889     0.00000
   547   2    -7.84889     7.84889     0.00000
   548   3    -3.92444     7.84889     0.00000
   549   3     0.00000     7.84889     0.00000
   550   1     3.92444     7.84889     0.00000
   551   2     7.84889     7.84889     0.00000
   552   2    11.77333     7.84889     0.00000
   553   1    15.69777     7.84889     0.00000
   554   2    19.62221     7.84889     0.00000
   555   1    23.54666     7.84889     0.00000
   556   1   -19.62221    11.77333     0.00000
   557   2   -15.69777    11.77333     0.00000
   558   2   -11.77333    11.77333     0.00000
   559   2    -7.84889    11.77333     0.00000
   560   2    -3.92444    11.77333     0.00000
   561   2     0.00000    11.77333     0.00000
   562   2     3.92444    11.77333     0.00000
   563   1     7.84889    11.77333     0.00000
   564   3    11.77333    11.77333     0.00000
   565   2    15.69777    11.77333     0.00000
   566   2    19.62221    11.77333     0.00000
   567   1   -15.69777    15.69777     0.00000
   568   1   -11.77333    15.69777     0.00000
   569   1    -7.84889    15.69777     0.00000
   570   3    -3.92444    15.69777     0.00000
   571   2     0.00000    15.69777     0.00000
   572   3     3.92444    15.69777     0.00000
   573   3     7.84889    15.69777     0.00000
   574   3    11.77333    15.69777     0.00000
   575   3    15.69777    15.69777     0.00000
   576   2   -11.77333    19.62221     0.00000
   577   3    -7.84889    19.62221     0.00000
   578   2    -3.92444    19.62221     0.00000
   579   1     0.00000    19.62221     0.00000
   580   2     3.92444    19.62221     0.00000
   581   2     7.84889    19.62221     0.00000
   582   3    11.77333    19.62221     0.00000
   583   1    -7.84889    23.54666     0.00000
   584   1    -3.92444    23.54666     0.00000
   585   1     0.00000    23.54666     0.00000
   586   2     3.92444    23.54666     0.00000
   587   2     7.84889    23.54666     0.00000
   588   1    -3.92444   -23.54666     3.92444
   589   2     0.00000   -23.54666     3.92444
   590   2     3.92444   -23.54666     3.92444
   591   2   -11.77333   -19.62221     3.92444
   592   2    -7.84889   -19.62221     3.92444
   593   2    -3.92444   -19.62221     3.92444
   594   1     0.00000   -19.62221     3.92444
   595   2     3.92444   -19.62221     3.92444
   596   2     7.84889   -19.62221     3.92444
   597   3    11.77333   -19.62221     3.92444
   598   2   -15.69777   -15.69777     3.92444
   599   2   -11.77333   -15.69777     3.92444
   600   2    -7.84889   -15.69777     3.92444
   601   1    -3.92444   -15.69777     3.92444
   602   1     0.00000   -15.69777     3.92444
   603   3     3.92444   -15.69777     3.92444
   604   1     7.84889   -15.69777     3.92444
   605   1    11.77333   -15.69777     3.92444
   606   2    15.69777   -15.69777     3.92444
   607   2   -19.62221   -11.77333     3.92444
   608   2   -15.69777   -11.77333     3.92444
   609   3   -11.77333   -11.77333     3.92444
   610   2    -7.84889   -11.77333     3.92444
   611   2    -3.92444   -11.77333     3.92444
   612   3     0.00000   -11.77333     3.92444
   613   2     3.92444   -11.77333     3.92444
   614   3     7.84889   -11.77333     3.92444
   615   3    11.77333   -11.77333     3.92444
   616   2    15.69777   -11.77333     3.92444
   617   2    19.62221   -11.77333     3.92444
   618   1   -19.62221    -7.84889     3.92444
   619   2   -15.69777    -7.84889     3.92444
   620   2   -11.77333    -7.84889     3.92444
   621   1    -7.84889    -7.84889     3.92444
   622   2    -3.92444    -7.84889     3.92444
   623   1     0.00000    -7.84889     3.92444
   624   2     3.92444    -7.84889     3.92444
   625   2     7.84889    -7.84889     3.92444
   626   3    11.77333    -7.84889     3.92444
   627   2    15.69777    -7.84889     3.92444
   628   2    19.62221    -7.84889     3.92444
   629   2   -23.54666    -3.92444     3.92444
   630   3   -19.62221    -3.92444     3.92444
   631   1   -15.69777    -3.92444     3.92444
   632   1   -11.77333    -3.92444     3.92444
   633   3    -7.84889    -3.92444     3.92444
   634   1    -3.92444    -3.92444     3.92444