4321
 Atoms. Timestep: 4193
1 0.0621615 -7.49564 -22.8532
2 -3.42078 -3.85756 -23.0158
2 0.0376113 -3.7691 -22.9646
3 3.96953 -3.55462 -22.8381
2 -8.55389 -1.31879 -22.703
3 -4.02451 -0.138761 -23.156
2 0.246273 0.26985 -22.877
2 3.72679 0.388182 -22.6271
1 7.77176 0.281094 -22.7074
1 -3.64918 4.0236 -22.6216
3 0.738456 4.51997 -23.323
2 3.94689 3.54826 -23.0091
1 0.245603 7.72871 -22.6997
2 -7.55286 -11.4423 -19.5581
3 -3.70081 -11.3663 -19.2399
2 0.331831 -11.574 -19.7109
3 3.88278 -11.4162 -18.8827
1 7.65826 -11.4904 -19.3319
2 -11.4672 -8.38372 -19.7183
2 -7.74086 -7.53031 -19.2259
2 -3.92048 -7.62843 -19.2324
1 0.0647282 -7.52028 -19.1308
2 3.86319 -7.58523 -19.0725
1 7.62143 -7.52383 -18.9722
1 11.397 -7.58852 -19.0593
2 -13.0473 -3.98774 -21.2955
3 -7.61328 -3.67067 -19.2837
1 -3.73374 -3.6489 -19.041
3 0.188847 -3.53004 -19.0604
2 3.83433 -3.70931 -19.0928
2 7.63581 -3.60932 -19.0596
3 11.3504 -3.65907 -18.7873
2 -11.588 0.0221304 -18.7799
1 -7.74784 -0.0950136 -19.4371
2 -3.86853 0.263707 -19.0231
1 -0.319199 0.40581 -19.195
1 3.88283 0.131065 -18.975
2 7.66677 -0.0280222 -18.752
2 11.3944 0.0239264 -18.9824
2 -11.9789 4.0968 -19.4041
2 -7.61999 3.80746 -19.4598
1 -4.05213 4.00479 -19.4853
2 -0.139891 4.06634 -19.1207
3 4.01073 3.93761 -18.9705
3 7.88702 4.04027 -19.1802
1 11.7545 4.17559 -19.2682
1 -11.9739 8.49902 -19.1661
2 -7.73068 7.69099 -19.0932
1 -3.91342 7.82717 -19.3257
2 -0.00272723 7.85436 -19.1888
2 3.88776 7.58147 -18.9962
1 7.55739 7.71452 -18.9526
2 11.7652 7.72452 -19.0675
2 -7.9262 11.7994 -18.6169
2 -4.32439 11.6601 -19.1141
1 -0.168284 12.4397 -20.1478
2 4.10905 11.6848 -19.2326
1 8.31851 11.808 -19.0178
3 -7.61039 -14.8313 -15.3594
2 -3.92579 -15.0414 -15.8387
2 -0.160798 -14.6533 -15.5882
2 3.78628 -15.4733 -15.9352
3 7.5771 -14.9923 -15.3699
1 -11.3311 -11.4506 -15.5227
2 -7.46532 -11.2991 -15.2996
2 -3.68656 -11.46 -15.2887
1 -0.17847 -11.5224 -15.2372
2 3.95527 -11.3158 -15.2637
2 7.60323 -11.2171 -15.1975
1 11.3931 -11.1254 -15.4544
1 -15.1617 -8.06238 -15.5904
2 -11.3451 -7.50788 -15.4731
3 -7.63619 -7.5997 -15.2899
2 -3.57043 -7.54283 -15.2031
3 0.0783868 -7.5973 -15.2116
1 3.81509 -7.54688 -15.2697
1 7.56799 -7.40171 -15.1326
2 11.4787 -7.52246 -15.2888
1 15.192 -7.82346 -15.5804
3 -15.5884 -4.05412 -15.3396
2 -11.4548 -3.72758 -15.2843
2 -7.64341 -3.8176 -15.089
2 -3.86701 -3.71746 -15.289
1 0.0263687 -3.66517 -15.359
3 3.6457 -3.7952 -15.0892
2 7.49948 -3.68801 -15.2139
3 11.3534 -3.7579 -15.2353
2 15.627 -3.75602 -15.7708
2 -15.2953 -0.300551 -15.1272
2 -11.5685 -0.242392 -15.2444
1 -7.69553 0.184266 -15.2898
1 -4.13467 0.0960147 -15.3411
2 0.0895931 0.182667 -15.3893
3 3.86543 0.096323 -15.1841
2 7.62345 -0.062023 -15.2001
2 11.5748 -0.0101836 -15.227
3 15.1786 -0.111333 -15.4031
2 -15.4662 3.33122 -15.2453
1 -11.6746 3.57416 -15.2143
2 -7.86765 3.76205 -15.4582
3 -4.08915 3.8779 -15.3366
2 0.0832318 3.87851 -15.3509
3 3.9023 3.94516 -15.1376
2 7.74529 3.76164 -15.1938
3 11.4987 3.77454 -15.1167
3 15.146 3.88252 -15.1095
2 -15.3202 7.58496 -15.3533
2 -11.7732 7.52419 -15.4506
1 -7.71232 7.57256 -15.4558
2 -3.82563 7.63927 -15.3755
2 0.0211103 7.69486 -15.2686
1 3.88101 7.618 -15.3083
3 7.66933 7.6315 -15.1469
3 11.3728 7.64367 -15.152
3 15.2452 7.67869 -15.0604
3 -11.5891 11.7023 -15.1472
2 -7.73628 11.4513 -15.2975
3 -3.83655 11.3168 -15.4943
3 -0.0279952 11.469 -15.3308
2 3.71461 11.4429 -15.2718
1 7.80076 11.5784 -15.4809
2 11.9068 11.5463 -15.4181
1 -7.90137 15.5716 -15.4554
2 -3.76557 15.4219 -15.4806
1 -0.217308 15.1819 -15.613
2 3.58353 15.7144 -15.6198
2 7.90389 15.1068 -15.4889
2 -7.69745 -18.7714 -11.3629
2 -4.87545 -20.0844 -11.6995
1 -0.180399 -19.3447 -11.7666
2 3.87704 -18.844 -11.6271
3 7.82095 -18.7802 -11.4982
3 -11.428 -15.2643 -11.5893
3 -7.62582 -15.0389 -11.3636
2 -3.67766 -15.1494 -11.3202
2 0.0297043 -15.1031 -11.3485
2 3.74219 -15.5799 -11.4213
1 7.78573 -15.3376 -11.7765
2 11.5446 -15.4555 -11.8679
1 -14.9386 -11.7647 -11.6232
2 -11.3105 -11.3188 -11.363
1 -7.54359 -11.2651 -11.3893
3 -3.91575 -11.4633 -11.5034
2 0.184488 -11.1849 -11.1771
2 3.75276 -11.4411 -11.3895
2 7.80284 -11.3645 -11.3744
1 11.4695 -11.2706 -11.5078
3 15.0647 -11.4892 -11.5997
2 -19.2041 -9.19991 -12.5424
2 -15.2036 -7.59207 -11.6313
1 -11.3844 -7.64198 -11.3664
3 -7.68809 -7.5883 -11.5301
1 -3.83237 -7.60458 -11.5355
2 -0.0232612 -7.48281 -11.4409
2 3.83262 -7.41175 -11.2761
1 7.82298 -7.53546 -11.3039
1 11.3502 -7.59327 -11.5768
1 15.3278 -7.74062 -11.6179
2 19.0688 -7.72405 -11.4423
2 -19.7765 -4.57125 -12.2503
2 -15.1147 -3.92875 -11.2896
1 -11.423 -3.82371 -11.4415
2 -7.50576 -3.67169 -11.7159
2 -4.00313 -3.83597 -11.4267
1 -0.0778013 -3.70682 -11.568
2 3.49522 -3.7938 -11.5104
3 7.35027 -3.84755 -11.4795
1 11.5756 -3.62552 -11.4665
3 15.3455 -3.64874 -11.57
2 19.2612 -3.85495 -11.664
2 -20.2286 -0.144573 -11.7966
2 -15.3051 -0.221487 -11.449
2 -11.6172 0.0977165 -11.4041
3 -7.80237 0.0629768 -11.451
3 -3.88014 -0.0149737 -11.6464
1 -0.0473422 0.0969827 -11.6178
1 3.7503 -0.0374439 -11.4721
1 7.61938 -0.0487621 -11.3446
3 11.3365 -0.0902336 -11.6241
2 15.0161 -0.00163101 -11.2914
1 19.4291 -0.272148 -11.4575
1 -19.5016 3.65654 -11.74
2 -15.4498 3.7858 -11.5563
1 -11.5983 3.8399 -11.4426
1 -7.78614 3.62701 -11.4333
3 -4.09547 3.98874 -11.4963
1 -0.0946423 3.92684 -11.488
3 3.87493 3.97581 -11.4287
1 7.7868 3.71169 -11.3118
2 11.3628 3.85991 -11.4675
2 15.2536 3.80822 -11.4216
1 19.1314 3.76835 -11.5574
1 -18.7673 7.9735 -11.7058
1 -15.5421 7.31383 -11.3947
2 -11.7801 7.57783 -11.3234
2 -7.79685 7.54071 -11.5102
2 -4.01752 7.6273 -11.5201
2 -0.053113 7.78651 -11.5475
3 3.79951 7.55536 -11.3618
2 7.81886 7.79796 -11.2415
2 11.4023 7.71524 -11.5311
2 15.2427 7.66047 -11.4552
1 19.053 7.38902 -11.5694
3 -15.1894 11.6664 -11.6069
1 -11.5843 11.6256 -11.8945
2 -7.69818 11.214 -11.5816
2 -3.83337 11.3135 -11.5198
1 0.026353 11.4215 -11.5725
3 3.76986 11.5302 -11.4686
1 7.65829 11.6803 -11.7628
3 11.4929 11.4075 -11.4331
2 15.0939 11.4072 -11.5013
2 -11.2459 15.3742 -11.3504
2 -7.77849 15.4032 -11.958
1 -3.92943 15.3425 -11.6024
2 0.0459056 15.1925 -11.682
3 3.63031 15.2439 -11.7504
3 7.58392 15.3358 -11.503
2 11.2291 15.3442 -11.5926
3 -7.69102 19.1798 -11.6941
3 -3.95972 19.4162 -11.4049
3 -0.146253 19.2429 -11.5196
2 3.81074 18.927 -11.4517
3 7.54295 19.0473 -11.5233
1 -0.185215 -22.6571 -7.44608
2 -11.2886 -19.0228 -7.67045
1 -7.34563 -19.1351 -7.5179
2 -3.80384 -18.7768 -7.76633
1 -0.0964442 -19.0541 -7.45964
3 3.78286 -19.1444 -7.75655
3 7.62909 -18.9209 -7.83333
2 11.7342 -18.9661 -8.08687
1 -15.0944 -15.3307 -8.25465
1 -11.3833 -15.1194 -7.63453
2 -7.62362 -15.2912 -7.57238
2 -3.6491 -15.1055 -7.54736
2 0.0383294 -15.1382 -7.63309
1 3.8541 -15.1397 -7.65298
2 7.71108 -15.3945 -7.79655
1 11.6203 -15.3215 -7.80185
2 15.4082 -15.2722 -7.8899
1 -18.7126 -11.6475 -8.00357
2 -15.1644 -11.2997 -7.46273
1 -11.4251 -11.356 -7.67017
3 -7.53137 -11.4352 -7.79236
1 -3.80603 -11.3326 -7.52619
3 -0.0748242 -11.2394 -7.54759
2 3.88958 -11.43 -7.62986
2 7.73019 -11.4956 -7.75427
2 11.578 -11.4314 -7.69438
1 15.409 -11.6376 -7.74918
2 18.9428 -11.5124 -7.78881
3 -18.8152 -7.10727 -8.03398
3 -15.1063 -7.78961 -7.50907
2 -11.3213 -7.59284 -7.72964
1 -7.55819 -7.64333 -7.77647
2 -3.95381 -7.68672 -7.60775
2 -0.350753 -7.5878 -7.54582
1 3.83681 -7.5888 -7.53241
3 7.5297 -7.52942 -7.52236
3 11.5344 -7.70898 -7.73556
1 15.292 -7.84859 -7.68156
2 18.9804 -7.79166 -7.69445
1 -18.8387 -3.96223 -7.48682
1 -15.0611 -3.89967 -7.39435
1 -11.4296 -3.74495 -7.52396
1 -7.52079 -3.89556 -7.62204
1 -3.75654 -3.78777 -7.65936
1 -0.109969 -3.61328 -7.68075
1 3.68616 -3.99266 -7.76082
2 7.47579 -3.83467 -7.55178
1 11.5246 -3.7729 -7.55141
2 15.0683 -3.81778 -7.66312
2 18.9785 -3.83189 -7.56332
2 -22.8778 -0.271551 -7.27232
1 -19.175 -0.179067 -7.48895
3 -15.2775 -0.0944797 -7.56799
2 -11.5738 -0.0875424 -7.518
3 -7.57841 -0.0859763 -7.51849
3 -3.92775 -0.00270521 -7.52625
2 -0.0412958 0.0565626 -7.71674
1 3.89754 0.0424385 -7.72298
2 7.76024 0.0752849 -7.64733
1 11.487 -0.0300384 -7.75315
1 15.3513 0.0210727 -7.77853
2 18.9792 -0.0897215 -7.86164
2 22.8404 -0.146637 -7.24677
1 -19.3666 3.95203 -7.66846
2 -15.2456 3.86507 -7.47771
1 -11.608 3.66187 -7.59973
1 -7.60912 3.73304 -7.59604
3 -3.72869 3.82113 -7.54842
2 0.125757 3.69655 -7.74371
2 3.75125 3.80898 -7.65684
1 7.73529 3.78226 -7.6699
3 11.4989 3.75977 -7.66195
2 15.3605 3.8834 -7.64058
3 19.212 3.66711 -7.64544
1 -19.2635 7.66939 -7.29591
1 -15.4443 7.67346 -7.52304
1 -11.4217 7.46713 -7.2747
2 -7.76291 7.30897 -7.49394
2 -3.82171 7.5284 -7.52411
2 -0.190857 7.64292 -7.76393
1 3.81632 7.70831 -7.70485
2 7.49123 7.69215 -7.71586
3 11.4924 7.57602 -7.77405
3 15.3415 7.52012 -7.54626
1 19.3409 7.46088 -7.61849
1 -19.0645 11.3749 -7.82455
3 -15.332 11.6416 -7.91064
2 -11.6399 11.3387 -7.73446
1 -7.76308 11.3125 -7.75254
2 -3.7736 11.5542 -7.80069
2 -0.158735 11.5197 -7.68049
1 3.73007 11.5252 -7.77707
1 7.68889 11.5947 -7.80125
3 11.4783 11.5048 -7.65052
2 15.3129 11.2927 -7.58802
2 19.3892 11.355 -7.86567
1 -15.265 15.176 -7.71493
1 -11.6444 15.0907 -7.62677
2 -7.8563 15.3055 -7.76657
3 -3.89559 15.2045 -7.92756
1 -0.0340527 15.2913 -7.93761
2 3.82261 15.2122 -7.69221
1 7.70012 15.312 -7.76048
3 11.5639 15.1127 -7.5568
2 15.3974 15.1247 -8.061
1 -11.7426 19.1387 -8.04571
1 -7.89109 18.9484 -7.6679
2 -3.83803 19.3678 -7.92561
2 -0.1648 18.9515 -7.84495
1 3.63467 19.0711 -7.71073
1 7.80996 19.3084 -7.64105
3 11.5817 19.0435 -8.00526
3 -0.0573589 22.8218 -7.52449
2 -3.93261 -23.0936 -3.69366
2 0.0237268 -23.0453 -3.90414
1 4.0135 -22.7555 -3.83464
2 -11.7845 -19.4997 -4.12901
3 -7.62936 -19.1507 -3.84334
2 -3.91296 -19.0849 -3.84078
3 -0.119542 -18.9389 -3.87789
2 3.81485 -19.4088 -3.83154
1 7.59308 -19.1128 -3.80488
2 11.5999 -19.2774 -4.02853
2 -15.5645 -15.4336 -4.03532
3 -11.4565 -15.0809 -4.05878
3 -7.5844 -14.9918 -4.02328
3 -3.79202 -15.315 -3.74773
2 0.157383 -15.293 -3.75741
1 3.91005 -15.4026 -3.85278
2 7.67056 -15.2092 -3.87008
1 11.4844 -15.3091 -3.76899
2 15.4826 -15.6494 -3.95912
2 -19.5778 -11.6716 -4.2031
2 -15.2637 -11.5802 -3.69598
2 -11.2764 -11.3832 -3.9251
2 -7.54316 -11.519 -3.9192
2 -3.90221 -11.405 -3.66402
3 -0.070024 -11.506 -3.7313
3 3.87384 -11.4901 -3.80538
3 7.63758 -11.4172 -3.99187
1 11.6866 -11.3621 -3.8096
3 15.2302 -11.6161 -3.83174
3 18.9081 -11.5772 -3.60639
2 -18.9945 -7.49407 -3.78939
3 -15.1467 -7.73321 -3.60988
3 -11.2351 -7.59059 -3.96651
1 -7.59556 -7.58084 -3.87542
3 -3.9729 -7.65835 -3.6874
3 -0.0138464 -7.50865 -3.76311
3 3.868 -7.62857 -3.69984
3 7.55361 -7.54371 -4.04319
2 11.2926 -7.63663 -3.98252
3 15.2851 -7.74805 -3.92801
2 18.8887 -7.49754 -3.63806
2 -22.8585 -4.55856 -3.7691
1 -18.9662 -3.9686 -3.76915
1 -15.1801 -3.79172 -3.69449
1 -11.4476 -3.81912 -3.84899
3 -7.60099 -3.80687 -3.89224
3 -3.68915 -3.71275 -3.70936
1 0.0477465 -3.84033 -3.85935
1 3.7637 -3.73598 -3.85247
3 7.48325 -3.64685 -3.6471
3 11.4129 -3.77765 -3.79955
3 15.2336 -3.76099 -3.57591
3 19.0884 -3.7937 -3.79075
2 23.5533 -2.75461 -3.18676
1 -22.7482 0.0065947 -3.48963
2 -19.1513 -0.239893 -3.84062
3 -15.2541 -0.119565 -3.79471
1 -11.3698 0.0574611 -3.76995
2 -7.68881 -0.0362058 -3.66452
3 -4.08842 0.0162522 -3.81108
3 0.0543648 0.0362611 -3.81957
3 3.83035 -0.0930057 -3.93846
2 7.76248 -0.0546624 -3.92812
2 11.4078 -0.161824 -3.90108
2 15.1616 -0.167899 -3.84531
2 19.1057 0.0538078 -3.83661
1 23.0665 -0.469331 -3.8277
3 -22.8886 3.79887 -3.66746
1 -19.1518 3.67113 -3.88667
3 -15.2789 3.7726 -3.8708
1 -11.533 3.58024 -3.74524
2 -7.57467 3.70992 -3.79176
2 -3.82817 3.64239 -3.67114
3 0.130891 3.73029 -3.79158
2 3.82222 3.74929 -3.69937
1 7.63998 3.84603 -3.92861
3 11.4454 3.80854 -3.58394
3 15.4263 3.72426 -3.73814
3 19.1317 3.95937 -3.77898
2 22.8923 3.75018 -3.59742
2 -19.1795 7.73843 -3.75275
3 -15.415 7.498 -3.94725
2 -11.4036 7.63227 -3.73681
3 -7.51624 7.43465 -3.84824
2 -3.79986 7.66086 -3.82337
3 -0.0141971 7.591 -3.68049
3 3.85552 7.62188 -3.58749
3 7.40509 7.8389 -3.96582
2 11.402 7.68405 -3.88112
2 15.3493 7.5981 -3.77111
2 19.036 7.69554 -3.84229
2 -19.1026 11.6697 -4.04681
2 -15.3085 11.2655 -3.84038
3 -11.4487 11.1877 -4.05374
1 -7.6641 11.3418 -3.96769
1 -3.91379 11.3995 -3.9258
1 -0.0769885 11.5093 -3.98291
3 3.81078 11.4451 -3.87317
2 7.46336 11.5929 -3.96671
2 11.4289 11.5126 -3.75888
1 15.2484 11.5491 -3.80295
2 19.1721 11.3103 -3.43453
1 -15.6276 15.3231 -3.9007
3 -11.4521 14.9997 -3.84834
3 -7.68923 15.0925 -3.91768
1 -3.851 15.245 -3.89064
1 0.0672362 15.2399 -4.0357
2 3.73068 15.1783 -3.8213
2 7.54397 15.4021 -3.82498
2 11.388 15.0719 -3.7288
2 15.2142 15.2365 -3.95229
3 -11.5957 18.9537 -4.10136
3 -7.64292 18.9047 -3.99461
3 -3.89302 19.0671 -3.91131
2 -0.0814703 19.0173 -3.98005
3 3.63175 18.8307 -3.93961
1 7.49663 19.0908 -4.14389
1 11.9016 19.4306 -4.10116
1 -3.76541 22.7871 -3.91731
1 0.0657194 23.0146 -3.96517
2 3.60937 22.8153 -3.86024
2 -7.56158 -23.0667 0.02985
2 -3.72194 -23.14 0.425219
2 -0.154959 -22.8585 0.141703
2 3.5261 -23.2846 -0.377909
2 7.18087 -22.8505 0.10224
2 -11.5526 -19.1194 -0.0392443
2 -7.72019 -19.0987 0.123
1 -3.98746 -19.1197 0.0863596
2 -0.187188 -18.9765 -0.0743508
2 3.88039 -18.9508 0.150943
2 7.57943 -18.9007 0.0484415
2 11.3185 -19.4211 -0.136115
2 -15.2213 -15.2627 0.0714762
3 -11.6009 -15.3234 0.114891
2 -7.67304 -15.3103 -0.0260329
2 -3.68882 -15.0722 0.0514919
1 -0.00180089 -15.2995 0.0171929
2 3.80365 -15.1969 -0.0761643
2 7.80225 -15.2932 -0.152679
2 11.3635 -15.3667 0.000456073
3 15.3298 -15.3003 0.0377875
3 -19.0034 -11.2633 0.11057
3 -15.0711 -11.5244 0.226069
3 -11.3967 -11.7295 0.0566652
1 -7.56553 -11.4904 0.0326089
3 -3.76805 -11.4018 0.172171
1 -0.0737058 -11.5292 0.0729147
2 3.85565 -11.5199 -0.015551
2 7.58732 -11.6166 -0.125027
1 11.5226 -11.4441 0.0277401
2 15.117 -11.1936 0.0294233
2 19.0402 -11.8344 0.0328135
1 -23.0368 -7.8462 0.140603
3 -18.9416 -7.61296 -0.0905183
3 -15.0025 -7.44908 0.0536838
2 -11.2263 -7.53331 0.271346
3 -7.49987 -7.83377 -0.019571
1 -3.83793 -7.79682 0.0326749
3 0.0331875 -7.69355 0.0172875
3 3.76475 -7.57477 0.0442378
2 7.55976 -7.53971 -0.161515
1 11.5696 -7.53259 -0.150561
2 15.1785 -7.54177 -0.0282193
1 19.1854 -7.50017 -0.0854151
2 22.7315 -7.48079 -0.378576
3 -22.8351 -3.89084 0.0085025
2 -19.1711 -4.13157 0.132114
2 -15.2736 -3.8248 0.113899
2 -11.3305 -4.0541 0.125197
2 -7.58799 -3.86417 -0.0463304
3 -3.82344 -3.70777 0.0816095
2 0.0979446 -3.70884 0.00949411
1 3.9063 -3.93025 0.0281304
3 7.58667 -3.7373 -0.0454669
1 11.4669 -3.77235 -0.0462367
2 15.3047 -3.82666 -0.225497
2 19.4916 -3.66897 -0.0930883
3 23.0898 -3.99616 0.23426
1 -23.4207 -0.367357 -0.984965
2 -18.8804 -0.217665 -0.028823
2 -15.1589 -0.0564031 0.060736
1 -11.2913 -0.112398 0.00743758
1 -7.4239 0.179926 0.124522
3 -3.63003 -0.10673 0.0280297
3 0.0682289 0.0234745 -0.0690179
3 3.69327 0.111544 0.0342537
2 7.63361 0.0024927 -0.0116026
3 11.3114 0.00240498 0.0187613
1 15.2345 -0.173494 -0.0505156
1 19.184 -0.0983669 0.0727976
2 23.1883 -0.111918 0.679588
1 -22.8356 3.69326 0.309141
3 -18.9707 3.74705 -0.049515
2 -15.3536 4.09883 0.025254
2 -11.5399 3.69489 0.0505527
2 -7.67906 3.59156 0.0424288
2 -3.83229 3.68123 -0.109341
3 0.0234914 3.65509 -0.0395799
3 3.72247 3.9048 -0.0168529
2 7.89561 3.92733 -0.0443362
2 11.2467 4.08337 0.0069823
3 15.2167 3.84723 -0.0176306
1 19.1834 3.48282 -0.0424849
3 22.9234 3.82503 0.0796039
2 -22.9745 7.89886 -0.160056
3 -19.1144 7.91987 -0.0831355
3 -15.32 7.58298 -0.148457
1 -11.3394 7.58908 -0.0529321
2 -7.35209 7.39522 0.028724
3 -3.73365 7.60907 -0.0200005
3 0.138735 7.5022 -0.018046
1 3.89533 7.70212 -0.00665372
2 7.74669 7.66321 0.000845706
2 11.497 7.56276 -0.141606
1 15.2885 7.87729 -0.00248497
2 19.1478 7.59582 0.254576
1 22.6376 7.60632 0.100357
1 -19.2838 11.4515 -0.0232971
2 -15.0984 11.3406 -0.118357
2 -11.278 11.3361 -0.139341
2 -7.69146 11.3602 -0.202954
2 -3.74341 11.3264 -0.118866
2 -0.00119687 11.318 0.0333724
2 3.71962 11.6163 -0.168887
1 7.57534 11.4353 -0.136997
3 11.5373 11.4342 0.00328708
2 15.1344 11.3362 -0.0970148
2 18.9372 11.519 -0.0588348
1 -15.358 15.2467 -0.11071
1 -11.4705 15.3737 -0.000357067
1 -7.70117 15.335 -0.0816447
3 -3.78247 15.4128 -0.180423
2 -0.139001 15.2166 -0.070253
3 3.54595 15.1655 -0.170706
3 7.63705 15.3459 0.0307185
3 11.4379 15.4556 -0.0702533
3 15.1064 15.4448 0.0191001
2 -11.6091 19.1621 0.00750498
3 -7.68081 19.1626 0.0666097
2 -3.87377 19.0201 0.0395194
1 -0.0341414 18.9948 -0.104061
2 3.46575 18.9829 -0.0885056
2 7.54863 19.1136 -0.319589
3 11.4882 19.3156 -0.180677
1 -5.43203 24.3017 -0.440894
1 -4.10311 22.2823 0.0115314
1 -0.193213 22.7844 0.0496211
2 3.68785 22.893 -0.216598
2 7.37932 22.9953 -0.182943
1 -4.00988 -22.9242 3.87893
2 -0.281382 -23.1363 3.63896
2 3.69827 -22.9534 3.60856
2 -11.5532 -19.0801 4.03719
2 -7.47462 -19.1824 3.88086
2 -3.83448 -19.2482 3.75847
1 0.195333 -19.167 3.82579
2 3.86199 -18.988 3.81421
2 7.74577 -19.241 3.85736
3 11.3667 -19.0486 4.05185
2 -15.4532 -15.3755 3.9385
2 -11.5281 -15.5054 3.78333
2 -7.61369 -15.2167 3.78702
1 -3.73472 -15.211 3.78666
1 0.0390434 -15.2192 3.81179
3 3.83801 -15.3261 3.83826
1 7.6055 -15.1399 3.74718
1 11.4186 -15.1419 3.89196
2 15.2059 -15.412 3.9983
2 -18.8544 -11.3872 3.88289
2 -15.3504 -11.4185 3.89644
3 -11.3836 -11.6842 4.00224
2 -7.47831 -11.498 4.00174
2 -3.91041 -11.5163 3.89584
3 0.0226344 -11.5688 3.7387
2 3.83199 -11.4207 3.78637
3 7.57683 -11.2665 3.67281
3 11.4602 -11.3021 3.79338
2 15.2176 -11.2893 3.71194
2 19.1394 -11.789 3.92236
1 -19.3183 -7.59949 3.98258
2 -15.3686 -7.67517 4.01687
2 -11.2502 -7.68267 3.88628
1 -7.51546 -7.76061 4.06045
2 -3.69967 -7.43072 4.11692
1 0.118332 -7.526 3.71526
2 3.93056 -7.80815 3.63508
2 7.5709 -7.60754 3.67769
3 11.5321 -7.61974 3.82151
2 15.26 -7.76406 3.94938
2 19.301 -7.59082 3.90591
2 -23.0807 -3.65473 3.395
3 -18.9721 -4.01299 3.80393
1 -15.0404 -3.82938 3.95462
1 -11.2977 -3.83093 3.94628
3 -7.5435 -3.86564 3.94496
1 -3.65257 -3.81818 3.85558
3 -0.190011 -3.92529 3.70571
1 3.86221 -3.65822 3.89544
1 7.78595 -3.85284 3.82765
2 11.4201 -3.64598 3.999
1 15.4045 -3.93196 3.60783
1 19.0362 -3.69375 4.03953
1 23.4183 -4.2759 3.70315
2 -23.0776 -0.885435 3.8043
3 -18.8682 -0.137972 3.89066
3 -15.0555 -0.0597831 3.91452
3 -11.235 -0.107808 3.77618
2 -7.43213 -0.217625 3.89295
3 -3.77085 -0.0995736 3.87229
3 0.112937 -0.0435183 3.89407
1 3.83195 -0.0449352 3.86327
3 7.8436 0.0429329 3.84216
1 11.4407 0.0956027 3.90863
2 15.3521 0.0481194 3.77139
2 19.2324 -0.0917997 3.90514
2 24.6537 -2.19368 4.26586
2 -22.6396 3.63215 3.82655
2 -19.0398 3.68773 3.84705
3 -15.2464 3.88047 3.83588
1 -11.3643 3.63472 3.61048
3 -7.51659 3.65054 3.73077
2 -3.76116 3.7223 3.83095
2 -0.193316 3.65183 3.79802
2 3.80014 3.70529 3.64799
2 7.51299 3.75007 3.80241
3 11.4059 3.8136 3.8237
2 15.1918 3.96652 3.92221
1 19.087 3.76304 3.97636
2 22.7264 3.58958 3.76629
2 -19.007 7.44621 4.04913
2 -15.1978 7.54704 3.56819
3 -11.2505 7.51891 3.64431
3 -7.41777 7.58904 3.87019
3 -3.70766 7.5229 3.93881
2 -0.128729 7.77 3.72145
2 3.77905 7.58694 3.65626
2 7.50033 7.78108 3.69904
3 11.4952 7.82561 3.92094
1 15.0492 7.67054 3.95159
2 19.0625 7.33814 4.00798
1 -19.2042 11.6376 3.89478
1 -15.0248 11.3081 3.93056
2 -11.2319 11.258 3.83739
3 -7.50652 11.2777 3.55739
2 -3.92302 11.4463 3.78428
2 -0.0498069 11.4273 3.85489
2 3.82023 11.5149 3.69587
3 7.52362 11.3949 3.6899
1 11.5016 11.6399 3.8403
3 15.3303 11.3763 3.82569
1 19.3726 11.697 4.27421
1 -15.2377 15.3962 3.99965
1 -11.3987 15.2215 3.82083
1 -7.60672 15.2185 3.71942
2 -3.92349 15.2608 3.88252
2 -0.0402362 15.1461 3.80411
1 3.98053 15.3274 3.90951
1 7.81925 15.3597 3.61464
1 11.3005 15.554 3.74788
2 15.3622 15.7541 3.89445
2 -11.7464 19.3144 4.21818
2 -7.52572 19.0069 3.87222
3 -3.92339 19.0796 3.95771
2 0.00284045 19.0282 3.88195
1 3.93469 18.9492 3.95848
1 7.62989 19.341 3.96858
2 11.5663 19.4818 4.15256
2 -3.84201 23.0165 4.1571
2 0.0939082 22.7999 3.87362
2 3.52657 22.7713 3.93914
1 -1.11243 -21.5925 7.89079
2 -11.3512 -19.1682 7.6102
3 -7.63375 -18.8434 7.74688
2 -3.43514 -19.315 7.66882
1 0.132108 -19.1771 7.5382
1 3.80627 -19.0434 7.75081
2 7.62544 -19.0482 7.6943
3 11.2301 -18.742 8.00986
2 -15.3838 -15.2076 7.85655
2 -11.5397 -15.2457 7.87429
2 -7.55243 -15.4331 7.63634
2 -3.72812 -15.3151 7.56107
3 -0.0228062 -15.1048 7.73157
3 3.6217 -15.3503 7.68601
3 7.60926 -15.0834 7.69678
2 11.3233 -15.0073 7.81718
3 15.4966 -15.7469 8.67911
2 -19.2226 -11.2116 7.86377
2 -15.6508 -11.4866 7.86221
1 -11.3937 -11.4305 7.68713
2 -7.455 -11.6598 7.68316
3 -3.65481 -11.5321 7.657
1 -0.0646837 -11.4898 7.66645
2 3.71533 -11.3163 7.51071
1 7.80643 -11.2534 7.57215
1 11.3541 -11.4487 7.55889
1 15.3116 -11.4202 7.50489
2 18.9956 -11.6086 7.88804
1 -19.2278 -7.43606 7.68371
3 -15.2677 -7.7211 7.471
2 -11.6032 -7.52765 7.67042
3 -7.55002 -7.8847 7.78627
1 -3.73995 -7.67178 7.8055
1 0.0959393 -7.80674 7.6775
2 3.80122 -7.65991 7.57644
2 7.6301 -7.64237 7.7791
1 11.4445 -7.68655 7.8164
2 15.2843 -7.63304 7.80293
2 19.1722 -7.76763 7.86153
2 -18.7305 -3.97978 7.61497
2 -15.1564 -3.86167 7.67077
1 -11.4304 -3.76107 7.77758
2 -7.55455 -3.89044 7.52873
1 -3.71537 -3.90906 7.89765
2 -0.05975 -3.99442 7.74021
2 3.91845 -3.76724 7.70701
3 7.67314 -3.94442 7.77283
3 11.4513 -3.73658 7.84208
2 15.2856 -3.72912 7.89704
2 19.2604 -4.03039 7.85806
3 -22.8031 -0.0075468 7.35559
2 -18.9687 -0.039982 7.42514
3 -15.089 0.0731291 7.62967
3 -11.39 -0.115571 7.53874
3 -7.55529 -0.0225356 7.57327
3 -3.6616 -0.0462714 7.62063
2 0.149894 -0.201443 7.69265
3 3.8275 0.0964216 7.6178
1 7.57499 0.155781 7.75145
3 11.6519 -0.155992 7.65672
1 15.1279 0.0660104 7.65773
1 19.2658 -0.239451 8.12776
2 22.6734 0.103337 8.31621
1 -19.2342 3.76535 7.55539
2 -15.2436 3.58324 7.66326
1 -11.4308 3.75112 7.6859
2 -7.51632 3.97454 7.67653
3 -3.85176 3.79141 7.52637
1 0.19677 3.76237 7.52341
3 3.86823 3.91839 7.33347
3 7.72644 3.77777 7.48543
2 11.4837 4.02286 7.66002
2 15.1238 3.79227 7.64591
1 18.9297 3.61199 7.52409
1 -19.0193 7.47423 7.29294
3 -15.0121 7.45796 7.64369
2 -11.2433 7.51199 7.5242
1 -7.56627 7.60118 7.47647
2 -3.72526 7.43967 7.51739
2 -0.0131956 7.54202 7.63389
2 3.91407 7.75909 7.5242
2 7.71397 7.52832 7.67944
2 11.4388 7.68074 7.64772
3 15.2398 7.5915 7.7131
1 19.2523 7.82641 7.72687
2 -19.0037 11.1363 7.85609
3 -15.1607 11.242 7.3943
2 -11.1534 11.255 7.44123
3 -7.43687 11.3432 7.64067
2 -3.89783 11.3928 7.53584
2 0.0123186 11.2912 7.60208
2 3.70091 11.4268 7.85146
2 7.77653 11.3165 7.68712
2 11.4814 11.4275 7.55322
2 15.3003 11.5937 7.65938
2 18.8064 11.4644 8.1933
1 -15.3326 15.4473 8.05453
3 -11.3334 15.1603 7.62355
1 -7.75268 15.079 7.64331
3 -3.87582 15.0694 7.65956
2 0.159987 15.1871 7.56659
2 3.7872 15.2538 7.66614
2 7.5716 15.3017 7.61755
3 11.4304 15.4558 7.80663
1 15.5228 15.5076 8.3481
2 -11.3246 18.8467 7.80442
3 -7.68055 18.9703 7.87957
1 -3.90858 18.7604 7.6866
2 -0.252922 18.8275 7.6765
2 3.54151 19.2761 7.70813
2 7.58854 19.1156 7.60526
2 11.5703 19.1127 8.16152
2 -0.326967 22.8397 7.55106
3 -8.11758 -18.8804 11.6682
1 -3.99695 -19.3366 12.0189
3 0.105124 -18.932 11.6248
2 3.97574 -18.9696 11.4066
1 8.13814 -19.1344 11.8459
3 -11.5752 -15.085 11.7207
3 -7.7863 -15.1884 11.7124
2 -3.82989 -15.3409 11.6154
2 0.08145 -15.118 11.5453
2 3.92824 -15.2731 11.1902
1 7.61556 -15.1042 11.4494
2 11.3723 -15.0806 11.6484
1 -16.1327 -12.1302 12.0012
2 -11.3458 -11.4804 11.5254
1 -7.58638 -11.6036 11.614
1 -3.80581 -11.5691 11.6881
1 -0.118251 -11.5661 11.6115
3 3.7086 -11.3869 11.4068
2 7.46549 -11.3952 11.2633
1 11.5461 -11.5526 11.6009
1 15.3303 -11.67 11.8058
3 -19.0792 -7.71222 11.6719
3 -15.2871 -7.87286 11.3895
1 -11.5887 -7.57023 11.4455
3 -7.61523 -7.84723 11.5287
2 -3.86517 -7.55458 11.64
3 -0.0915943 -7.57784 11.5191
2 3.60145 -7.57788 11.4447
3 7.55864 -7.56605 11.5518
1 11.4058 -7.66815 11.4838
3 15.0015 -7.57873 11.5122
3 18.9399 -8.07043 11.7844
2 -18.9564 -3.95078 11.5135
2 -15.4813 -3.70736 11.6075
1 -11.3808 -3.65477 11.3417
2 -7.64942 -3.75306 11.5258
2 -3.78761 -3.7141 11.6289
3 0.0826786 -3.83247 11.5048
2 3.90155 -4.05453 11.4781
1 7.72549 -3.79241 11.5051
3 11.4381 -3.82131 11.4864
2 15.1418 -4.06758 11.6716
2 18.8934 -4.19985 11.7345
1 -19.39 0.0629701 11.9071
1 -15.4397 -0.0547877 11.4742
2 -11.5963 0.0561776 11.4245
2 -7.5909 0.142292 11.2706
1 -3.89053 0.0799386 11.3671
2 0.218666 -0.00394124 11.3297
2 3.76347 -0.0155577 11.3887
3 7.75782 0.164063 11.6107
3 11.667 -0.040812 11.4726
3 15.3514 0.0280724 11.4892
2 19.3411 0.0679625 11.9537
1 -19.4179 4.2415 11.4852
2 -15.3987 3.66103 11.3743
1 -11.4436 3.69274 11.4028
1 -7.71399 3.5494 11.3732
2 -3.85221 3.72321 11.3448
3 -0.0111639 3.92124 11.38
3 3.99429 3.74455 11.393
2 7.496 3.78537 11.6182
2 11.2697 3.74402 11.6113
1 15.1241 3.95961 11.5695
2 20.368 5.1457 11.546
1 -18.9449 7.1822 11.3971
1 -15.2216 7.57095 11.4269
1 -11.3068 7.46162 11.3717
1 -7.6091 7.45825 11.3966
3 -3.72904 7.70835 11.3077
1 0.117477 7.47629 11.2394
2 3.85269 7.55716 11.636
2 7.7658 7.63766 11.457
2 11.3277 7.71227 11.41
1 15.2141 7.66794 11.4548
2 18.8717 7.53994 11.6298
2 -15.1056 11.1707 11.3968
1 -11.787 11.1156 11.6447
2 -7.7052 11.2196 11.5215
2 -3.77158 11.3469 11.4212
2 0.0640799 11.2864 11.3642
1 3.55096 11.5373 11.3144
1 7.60922 11.4241 11.398
1 11.4806 11.5005 11.494
3 15.1737 11.3789 11.5928
1 -11.8294 15.4994 12.0418
1 -7.85768 15.1178 11.4872
3 -3.87103 15.0783 11.6145
3 -0.112669 15.1971 11.3571
2 3.69311 15.2239 11.4105
1 7.48258 15.2159 11.5461
2 11.6182 15.8482 11.8963
1 -7.67699 18.8999 11.5647
3 -4.03121 19.041 11.6916
1 -0.244601 19.0621 11.6814
1 3.66294 18.9096 11.7003
2 8.17394 19.4474 12.0832
2 -8.20787 -15.403 15.7454
2 -4.09313 -15.7889 15.7849
3 0.0379333 -15.2073 15.4024
1 3.97538 -15.7171 15.3484
2 7.88735 -15.0565 15.5044
1 -11.4223 -11.2929 15.4116
2 -7.66021 -11.575 15.4947
2 -3.85122 -11.4236 15.5685
2 -0.122028 -11.3955 15.3699
3 3.76441 -11.6295 15.5078
2 7.32139 -11.5709 15.2264
2 11.398 -11.3978 15.2963
3 -15.4544 -7.67697 15.3617
2 -11.6472 -7.73931 15.1894
1 -7.5967 -7.77245 15.3877
3 -3.79531 -7.63549 15.4284
2 0.0420787 -7.61748 15.3214
2 3.72361 -7.76414 15.3412
2 7.50681 -7.69215 15.25
2 11.3192 -7.69741 15.2949
1 15.204 -7.97272 15.4797
2 -16.7242 -3.93062 16.7476
3 -11.4893 -3.81867 15.2734
1 -7.62325 -3.68994 15.4091
2 -4.0123 -3.75581 15.4546
3 -0.131988 -3.8089 15.3754
2 3.84445 -3.87018 15.077
2 7.64514 -4.02349 15.4777
3 11.2069 -3.81198 15.2104
1 15.4167 -4.03368 15.8693
3 -15.1739 0.0652505 15.4486
2 -11.5082 -0.0639956 15.4245
1 -7.91366 -0.00690207 15.4749
3 -3.76129 -0.224618 15.2779
3 0.0347374 -0.192155 15.1573
1 3.76297 -0.164008 15.3894
2 7.74526 0.11488 15.3785
1 11.6886 -0.0483596 15.4574
2 14.9561 -0.0290305 15.4658
1 -15.1436 3.87474 15.5259
2 -11.4679 3.79659 15.2523
2 -7.38307 3.79527 15.0521
1 -3.76243 3.65431 15.1965
1 0.0891053 3.81545 15.1582
2 3.83189 3.84643 15.2214
1 7.80381 3.76509 15.3466
1 11.4035 3.95832 15.4127
2 15.1438 3.80146 15.8285
1 -15.2983 7.78369 15.1694
3 -11.4308 7.59078 15.2009
3 -7.6537 7.52875 15.3081
1 -3.83904 7.62368 15.0982
3 -0.0805373 7.55563 15.0891
2 3.81846 7.59246 15.3328
2 7.65314 7.69121 15.3445
3 11.5262 7.70779 15.214
2 15.2512 7.74347 15.4802
2 -11.5617 11.3397 15.1566
2 -7.66931 11.4051 15.2125
1 -3.97524 11.3352 15.1495
2 -0.237102 11.4626 15.334
2 3.64805 11.4539 15.2305
1 7.67268 11.6073 15.2419
2 11.5927 11.6193 15.5493
2 -7.95594 15.1294 15.4395
1 -3.96186 15.3085 15.5163
3 -0.18316 15.2495 15.2734
2 3.43879 15.1905 15.4305
2 7.6616 15.5503 15.2498
3 -7.59413 -11.4212 19.1002
1 -3.8098 -11.5676 19.2346
1 -0.0549706 -11.3937 19.2319
2 3.81105 -11.575 19.0543
2 7.44604 -11.6761 19.3229
1 -11.5513 -7.60808 19.391
1 -7.63431 -7.82313 19.2724
3 -3.7684 -7.81985 19.5892
3 0.115379 -7.77855 19.3789
1 3.71816 -7.7501 19.0788
2 7.66271 -7.81151 19.3512
1 11.478 -7.98784 19.0841
2 -11.6111 -4.01397 19.1828
3 -7.75243 -3.81577 19.3485
1 -3.83435 -3.65572 19.4282
2 0.195902 -3.88136 19.1913
2 3.80985 -3.91146 18.9816
1 7.63318 -3.89514 18.9322
1 11.6524 -4.12343 19.7215
2 -11.9567 -0.242251 19.335
3 -7.80627 0.0797078 19.219
2 -3.75819 0.118072 18.9252
2 0.104818 0.0823729 19.1342
3 3.86416 -0.028834 19.1089
1 7.6759 0.0768966 19.1981
3 11.2344 -0.0989783 19.1006
1 -11.6465 4.79108 19.6733
2 -7.50679 3.69806 18.997
3 -3.64226 3.94504 19.1587
3 0.0715548 3.8211 19.0646
3 3.80118 3.83023 19.1304
1 7.4243 3.90463 19.3431
2 11.2153 4.04572 19.3845
3 -11.2221 7.42852 18.9766
1 -7.72658 7.42774 18.8526
3 -3.81523 7.32156 18.9371
1 -0.103947 7.58467 19.0262
2 3.90478 7.64667 19.1626
3 7.5529 7.57809 19.101
3 11.0456 7.92748 18.9307
2 -7.74766 11.1652 19.0724
3 -3.88158 11.2188 19.0385
2 -0.406724 11.3622 19.0813
1 3.69433 11.6453 19.1402
1 7.9938 11.7991 19.1171
2 -0.115243 -6.98713 22.9923
1 -3.82837 -3.47079 22.6095
1 -0.0186867 -3.55566 23.1668
2 3.91199 -4.2028 23.4349
2 -7.72408 0.199005 23.056
3 -3.71657 0.125583 22.8413
3 0.0371802 0.0536944 22.7175
3 3.80672 0.0771461 22.8555
2 7.37676 -0.0732634 22.7719
2 -3.92288 4.19643 22.8648
3 0.0258001 3.83934 22.8796
3 3.64452 3.96266 23.0799
2 -0.151585 7.37476 22.7773
2 -5.80466 -5.73775 -23.0645
1 -1.66856 -5.56199 -22.6346
2 1.93241 -5.45591 -22.7448
3 5.94649 -5.61801 -22.7779
2 -5.72493 -2.35176 -23.226
1 -1.67691 -1.87424 -22.7466
2 1.94986 -1.7558 -22.6233
1 5.90374 -1.69098 -22.3246
2 -7.56486 0.902106 -23.5856
3 -1.47169 2.68564 -23.1935
1 1.86329 2.06021 -22.9108
1 6.08613 2.24785 -22.5984
2 -5.77894 4.66193 -21.5034
2 -1.70914 5.51612 -23.0933
3 2.59318 5.92347 -22.7584
2 5.63594 5.69014 -22.7702
1 -5.69275 -12.951 -19.9379
1 -1.76047 -12.948 -19.1617
3 2.44913 -13.0436 -19.1883
1 5.69306 -13.1884 -19.0786
2 -9.38912 -9.80188 -19.5825
3 -5.64846 -9.39527 -19.0509
1 -1.66268 -9.59182 -19.1948
1 2.1137 -9.58123 -19.2212
3 5.70217 -9.55623 -19.0601
1 9.49528 -9.62318 -19.236
1 -13.4742 -5.59437 -19.4056
2 -9.54016 -5.5745 -19.3479
2 -5.80183 -5.57318 -19.2259
3 -2.11035 -5.70813 -19.2856
2 2.03431 -5.6748 -19.0939
2 5.75814 -5.63688 -18.8706
2 9.77149 -5.71146 -19.3644