LAMMPS DATA FOR MEAM SIMULATION

   3894   atoms
      3   atom types

  -33.55   33.55   xlo xhi
  -33.55   33.55   ylo yhi
  -33.55   33.55   zlo zhi

 Atoms

     1   3    -3.92444    -3.92444   -23.54666
     2   3     0.00000    -3.92444   -23.54666
     3   2     3.92444    -3.92444   -23.54666
     4   3    -7.84889     0.00000   -23.54666
     5   1    -3.92444     0.00000   -23.54666
     6   3     0.00000     0.00000   -23.54666
     7   3     3.92444     0.00000   -23.54666
     8   1     7.84889     0.00000   -23.54666
     9   2    -3.92444     3.92444   -23.54666
    10   3     0.00000     3.92444   -23.54666
    11   3     0.00000     7.84889   -23.54666
    12   1    -7.84889   -11.77333   -19.62221
    13   2     0.00000   -11.77333   -19.62221
    14   2     3.92444   -11.77333   -19.62221
    15   1     7.84889   -11.77333   -19.62221
    16   1   -11.77333    -7.84889   -19.62221
    17   2    -7.84889    -7.84889   -19.62221
    18   3    -3.92444    -7.84889   -19.62221
    19   2     0.00000    -7.84889   -19.62221
    20   1     3.92444    -7.84889   -19.62221
    21   2     7.84889    -7.84889   -19.62221
    22   1    11.77333    -7.84889   -19.62221
    23   2   -11.77333    -3.92444   -19.62221
    24   3    -7.84889    -3.92444   -19.62221
    25   2    -3.92444    -3.92444   -19.62221
    26   1     0.00000    -3.92444   -19.62221
    27   3     3.92444    -3.92444   -19.62221
    28   3     7.84889    -3.92444   -19.62221
    29   3    11.77333    -3.92444   -19.62221
    30   2   -11.77333     0.00000   -19.62221
    31   2    -7.84889     0.00000   -19.62221
    32   3    -3.92444     0.00000   -19.62221
    33   3     3.92444     0.00000   -19.62221
    34   1     7.84889     0.00000   -19.62221
    35   3    11.77333     0.00000   -19.62221
    36   2    -7.84889     3.92444   -19.62221
    37   3    -3.92444     3.92444   -19.62221
    38   1     0.00000     3.92444   -19.62221
    39   1     3.92444     3.92444   -19.62221
    40   2     7.84889     3.92444   -19.62221
    41   3    11.77333     3.92444   -19.62221
    42   1   -11.77333     7.84889   -19.62221
    43   2    -7.84889     7.84889   -19.62221
    44   3    -3.92444     7.84889   -19.62221
    45   1     0.00000     7.84889   -19.62221
    46   1     3.92444     7.84889   -19.62221
    47   2     7.84889     7.84889   -19.62221
    48   2    -7.84889    11.77333   -19.62221
    49   1    -3.92444    11.77333   -19.62221
    50   1     0.00000    11.77333   -19.62221
    51   2     3.92444    11.77333   -19.62221
    52   1     7.84889    11.77333   -19.62221
    53   3    -7.84889   -15.69777   -15.69777
    54   1    -3.92444   -15.69777   -15.69777
    55   3     0.00000   -15.69777   -15.69777
    56   2     3.92444   -15.69777   -15.69777
    57   2     7.84889   -15.69777   -15.69777
    58   2   -11.77333   -11.77333   -15.69777
    59   1    -3.92444   -11.77333   -15.69777
    60   1     0.00000   -11.77333   -15.69777
    61   1     3.92444   -11.77333   -15.69777
    62   1     7.84889   -11.77333   -15.69777
    63   3    11.77333   -11.77333   -15.69777
    64   2   -15.69777    -7.84889   -15.69777
    65   2   -11.77333    -7.84889   -15.69777
    66   2    -7.84889    -7.84889   -15.69777
    67   1    -3.92444    -7.84889   -15.69777
    68   2     3.92444    -7.84889   -15.69777
    69   2     7.84889    -7.84889   -15.69777
    70   1    15.69777    -7.84889   -15.69777
    71   3   -15.69777    -3.92444   -15.69777
    72   1   -11.77333    -3.92444   -15.69777
    73   3    -3.92444    -3.92444   -15.69777
    74   3     3.92444    -3.92444   -15.69777
    75   1    11.77333    -3.92444   -15.69777
    76   3   -15.69777     0.00000   -15.69777
    77   1   -11.77333     0.00000   -15.69777
    78   3    -7.84889     0.00000   -15.69777
    79   1    -3.92444     0.00000   -15.69777
    80   1     0.00000     0.00000   -15.69777
    81   1     3.92444     0.00000   -15.69777
    82   2     7.84889     0.00000   -15.69777
    83   3    11.77333     0.00000   -15.69777
    84   2    15.69777     0.00000   -15.69777
    85   2   -15.69777     3.92444   -15.69777
    86   1   -11.77333     3.92444   -15.69777
    87   2    -7.84889     3.92444   -15.69777
    88   2    -3.92444     3.92444   -15.69777
    89   3     0.00000     3.92444   -15.69777
    90   2     3.92444     3.92444   -15.69777
    91   3     7.84889     3.92444   -15.69777
    92   3    11.77333     3.92444   -15.69777
    93   2    15.69777     3.92444   -15.69777
    94   2   -15.69777     7.84889   -15.69777
    95   3   -11.77333     7.84889   -15.69777
    96   3    -7.84889     7.84889   -15.69777
    97   1    -3.92444     7.84889   -15.69777
    98   2     0.00000     7.84889   -15.69777
    99   2     3.92444     7.84889   -15.69777
   100   2     7.84889     7.84889   -15.69777
   101   2    11.77333     7.84889   -15.69777
   102   2    15.69777     7.84889   -15.69777
   103   2   -11.77333    11.77333   -15.69777
   104   2    -3.92444    11.77333   -15.69777
   105   2     0.00000    11.77333   -15.69777
   106   1     3.92444    11.77333   -15.69777
   107   2     7.84889    11.77333   -15.69777
   108   1    11.77333    11.77333   -15.69777
   109   3    -7.84889    15.69777   -15.69777
   110   2    -3.92444    15.69777   -15.69777
   111   1     0.00000    15.69777   -15.69777
   112   2     3.92444    15.69777   -15.69777
   113   2     7.84889    15.69777   -15.69777
   114   1    -7.84889   -19.62221   -11.77333
   115   1    -3.92444   -19.62221   -11.77333
   116   3     0.00000   -19.62221   -11.77333
   117   2     3.92444   -19.62221   -11.77333
   118   3     7.84889   -19.62221   -11.77333
   119   2   -11.77333   -15.69777   -11.77333
   120   3    -7.84889   -15.69777   -11.77333
   121   3     0.00000   -15.69777   -11.77333
   122   2     3.92444   -15.69777   -11.77333
   123   2     7.84889   -15.69777   -11.77333
   124   3    11.77333   -15.69777   -11.77333
   125   1   -15.69777   -11.77333   -11.77333
   126   2   -11.77333   -11.77333   -11.77333
   127   3    -3.92444   -11.77333   -11.77333
   128   3     0.00000   -11.77333   -11.77333
   129   3     3.92444   -11.77333   -11.77333
   130   1     7.84889   -11.77333   -11.77333
   131   2    11.77333   -11.77333   -11.77333
   132   1    15.69777   -11.77333   -11.77333
   133   2   -19.62221    -7.84889   -11.77333
   134   1   -15.69777    -7.84889   -11.77333
   135   1   -11.77333    -7.84889   -11.77333
   136   2    -3.92444    -7.84889   -11.77333
   137   1     0.00000    -7.84889   -11.77333
   138   2     3.92444    -7.84889   -11.77333
   139   2     7.84889    -7.84889   -11.77333
   140   2    11.77333    -7.84889   -11.77333
   141   2    15.69777    -7.84889   -11.77333
   142   2    19.62221    -7.84889   -11.77333
   143   2   -19.62221    -3.92444   -11.77333
   144   3   -15.69777    -3.92444   -11.77333
   145   3   -11.77333    -3.92444   -11.77333
   146   1    -7.84889    -3.92444   -11.77333
   147   2    -3.92444    -3.92444   -11.77333
   148   1     0.00000    -3.92444   -11.77333
   149   1     3.92444    -3.92444   -11.77333
   150   3     7.84889    -3.92444   -11.77333
   151   1    11.77333    -3.92444   -11.77333
   152   1    15.69777    -3.92444   -11.77333
   153   1    19.62221    -3.92444   -11.77333
   154   2   -19.62221     0.00000   -11.77333
   155   2   -15.69777     0.00000   -11.77333
   156   3   -11.77333     0.00000   -11.77333
   157   3    -7.84889     0.00000   -11.77333
   158   2    -3.92444     0.00000   -11.77333
   159   2     0.00000     0.00000   -11.77333
   160   3     3.92444     0.00000   -11.77333
   161   2     7.84889     0.00000   -11.77333
   162   2    11.77333     0.00000   -11.77333
   163   1    15.69777     0.00000   -11.77333
   164   1    19.62221     0.00000   -11.77333
   165   2   -19.62221     3.92444   -11.77333
   166   1   -15.69777     3.92444   -11.77333
   167   2   -11.77333     3.92444   -11.77333
   168   2    -3.92444     3.92444   -11.77333
   169   3     0.00000     3.92444   -11.77333
   170   2     3.92444     3.92444   -11.77333
   171   3    11.77333     3.92444   -11.77333
   172   2    15.69777     3.92444   -11.77333
   173   2    19.62221     3.92444   -11.77333
   174   3   -15.69777     7.84889   -11.77333
   175   2   -11.77333     7.84889   -11.77333
   176   2    -7.84889     7.84889   -11.77333
   177   1    -3.92444     7.84889   -11.77333
   178   1     3.92444     7.84889   -11.77333
   179   2     7.84889     7.84889   -11.77333
   180   1    15.69777     7.84889   -11.77333
   181   2    19.62221     7.84889   -11.77333
   182   2   -15.69777    11.77333   -11.77333
   183   2   -11.77333    11.77333   -11.77333
   184   1    -3.92444    11.77333   -11.77333
   185   3     0.00000    11.77333   -11.77333
   186   3     3.92444    11.77333   -11.77333
   187   1     7.84889    11.77333   -11.77333
   188   2    11.77333    11.77333   -11.77333
   189   1    15.69777    11.77333   -11.77333
   190   2   -11.77333    15.69777   -11.77333
   191   3    -7.84889    15.69777   -11.77333
   192   2    -3.92444    15.69777   -11.77333
   193   1     0.00000    15.69777   -11.77333
   194   2     3.92444    15.69777   -11.77333
   195   2     7.84889    15.69777   -11.77333
   196   2    11.77333    15.69777   -11.77333
   197   1    -3.92444    19.62221   -11.77333
   198   2     0.00000    19.62221   -11.77333
   199   2     3.92444    19.62221   -11.77333
   200   2     7.84889    19.62221   -11.77333
   201   2     0.00000   -23.54666    -7.84889
   202   3   -11.77333   -19.62221    -7.84889
   203   2    -7.84889   -19.62221    -7.84889
   204   1    -3.92444   -19.62221    -7.84889
   205   2     0.00000   -19.62221    -7.84889
   206   1     3.92444   -19.62221    -7.84889
   207   2     7.84889   -19.62221    -7.84889
   208   2    11.77333   -19.62221    -7.84889
   209   2   -15.69777   -15.69777    -7.84889
   210   3   -11.77333   -15.69777    -7.84889
   211   2    -7.84889   -15.69777    -7.84889
   212   1    -3.92444   -15.69777    -7.84889
   213   1     3.92444   -15.69777    -7.84889
   214   2     7.84889   -15.69777    -7.84889
   215   3    11.77333   -15.69777    -7.84889
   216   3    15.69777   -15.69777    -7.84889
   217   2   -15.69777   -11.77333    -7.84889
   218   2   -11.77333   -11.77333    -7.84889
   219   2    -7.84889   -11.77333    -7.84889
   220   2    -3.92444   -11.77333    -7.84889
   221   2     0.00000   -11.77333    -7.84889
   222   2     3.92444   -11.77333    -7.84889
   223   2     7.84889   -11.77333    -7.84889
   224   1    11.77333   -11.77333    -7.84889
   225   2    19.62221   -11.77333    -7.84889
   226   1   -19.62221    -7.84889    -7.84889
   227   2   -15.69777    -7.84889    -7.84889
   228   2   -11.77333    -7.84889    -7.84889
   229   2    -7.84889    -7.84889    -7.84889
   230   3    -3.92444    -7.84889    -7.84889
   231   2     0.00000    -7.84889    -7.84889
   232   2     3.92444    -7.84889    -7.84889
   233   2     7.84889    -7.84889    -7.84889
   234   2    11.77333    -7.84889    -7.84889
   235   1    15.69777    -7.84889    -7.84889
   236   2    19.62221    -7.84889    -7.84889
   237   2   -19.62221    -3.92444    -7.84889
   238   2   -11.77333    -3.92444    -7.84889
   239   3    -7.84889    -3.92444    -7.84889
   240   2    -3.92444    -3.92444    -7.84889
   241   2     0.00000    -3.92444    -7.84889
   242   2     3.92444    -3.92444    -7.84889
   243   3    11.77333    -3.92444    -7.84889
   244   1    15.69777    -3.92444    -7.84889
   245   1    19.62221    -3.92444    -7.84889
   246   3   -23.54666     0.00000    -7.84889
   247   3   -19.62221     0.00000    -7.84889
   248   1   -15.69777     0.00000    -7.84889
   249   1   -11.77333     0.00000    -7.84889
   250   3    -7.84889     0.00000    -7.84889
   251   2     0.00000     0.00000    -7.84889
   252   3     3.92444     0.00000    -7.84889
   253   2     7.84889     0.00000    -7.84889
   254   3    11.77333     0.00000    -7.84889
   255   2    15.69777     0.00000    -7.84889
   256   2    19.62221     0.00000    -7.84889
   257   2    23.54666     0.00000    -7.84889
   258   1   -19.62221     3.92444    -7.84889
   259   1   -15.69777     3.92444    -7.84889
   260   2   -11.77333     3.92444    -7.84889
   261   2    -7.84889     3.92444    -7.84889
   262   3    -3.92444     3.92444    -7.84889
   263   1     3.92444     3.92444    -7.84889
   264   3     7.84889     3.92444    -7.84889
   265   3    11.77333     3.92444    -7.84889
   266   2    19.62221     3.92444    -7.84889
   267   3   -19.62221     7.84889    -7.84889
   268   1   -15.69777     7.84889    -7.84889
   269   1   -11.77333     7.84889    -7.84889
   270   1    -7.84889     7.84889    -7.84889
   271   2     0.00000     7.84889    -7.84889
   272   2     3.92444     7.84889    -7.84889
   273   3     7.84889     7.84889    -7.84889
   274   1    11.77333     7.84889    -7.84889
   275   2    15.69777     7.84889    -7.84889
   276   1    19.62221     7.84889    -7.84889
   277   2   -19.62221    11.77333    -7.84889
   278   2   -11.77333    11.77333    -7.84889
   279   2    -7.84889    11.77333    -7.84889
   280   2    -3.92444    11.77333    -7.84889
   281   2     0.00000    11.77333    -7.84889
   282   2     3.92444    11.77333    -7.84889
   283   3     7.84889    11.77333    -7.84889
   284   1    15.69777    11.77333    -7.84889
   285   1    19.62221    11.77333    -7.84889
   286   1   -15.69777    15.69777    -7.84889
   287   1   -11.77333    15.69777    -7.84889
   288   2    -7.84889    15.69777    -7.84889
   289   3     0.00000    15.69777    -7.84889
   290   2     3.92444    15.69777    -7.84889
   291   2     7.84889    15.69777    -7.84889
   292   1    11.77333    15.69777    -7.84889
   293   3    15.69777    15.69777    -7.84889
   294   2   -11.77333    19.62221    -7.84889
   295   2    -3.92444    19.62221    -7.84889
   296   2     0.00000    19.62221    -7.84889
   297   2     3.92444    19.62221    -7.84889
   298   2     7.84889    19.62221    -7.84889
   299   2    11.77333    19.62221    -7.84889
   300   2     0.00000    23.54666    -7.84889
   301   3    -3.92444   -23.54666    -3.92444
   302   2     0.00000   -23.54666    -3.92444
   303   2     3.92444   -23.54666    -3.92444
   304   1    -7.84889   -19.62221    -3.92444
   305   2    -3.92444   -19.62221    -3.92444
   306   2     0.00000   -19.62221    -3.92444
   307   2     7.84889   -19.62221    -3.92444
   308   3    11.77333   -19.62221    -3.92444
   309   2   -15.69777   -15.69777    -3.92444
   310   2    -7.84889   -15.69777    -3.92444
   311   1    -3.92444   -15.69777    -3.92444
   312   2     0.00000   -15.69777    -3.92444
   313   2     3.92444   -15.69777    -3.92444
   314   3     7.84889   -15.69777    -3.92444
   315   1    11.77333   -15.69777    -3.92444
   316   2    15.69777   -15.69777    -3.92444
   317   2   -19.62221   -11.77333    -3.92444
   318   2   -15.69777   -11.77333    -3.92444
   319   2    -3.92444   -11.77333    -3.92444
   320   3     0.00000   -11.77333    -3.92444
   321   1     3.92444   -11.77333    -3.92444
   322   3     7.84889   -11.77333    -3.92444
   323   3    11.77333   -11.77333    -3.92444
   324   3    15.69777   -11.77333    -3.92444
   325   1    19.62221   -11.77333    -3.92444
   326   3   -19.62221    -7.84889    -3.92444
   327   1    -7.84889    -7.84889    -3.92444
   328   1    -3.92444    -7.84889    -3.92444
   329   2     3.92444    -7.84889    -3.92444
   330   1     7.84889    -7.84889    -3.92444
   331   1    11.77333    -7.84889    -3.92444
   332   1    15.69777    -7.84889    -3.92444
   333   2    19.62221    -7.84889    -3.92444
   334   1   -23.54666    -3.92444    -3.92444
   335   2   -19.62221    -3.92444    -3.92444
   336   1   -15.69777    -3.92444    -3.92444
   337   2   -11.77333    -3.92444    -3.92444
   338   1    -7.84889    -3.92444    -3.92444
   339   1    -3.92444    -3.92444    -3.92444
   340   2     3.92444    -3.92444    -3.92444
   341   2     7.84889    -3.92444    -3.92444
   342   3    11.77333    -3.92444    -3.92444
   343   3    15.69777    -3.92444    -3.92444
   344   3    19.62221    -3.92444    -3.92444
   345   1    23.54666    -3.92444    -3.92444
   346   2   -23.54666     0.00000    -3.92444
   347   2   -19.62221     0.00000    -3.92444
   348   3   -15.69777     0.00000    -3.92444
   349   2   -11.77333     0.00000    -3.92444
   350   3    -3.92444     0.00000    -3.92444
   351   2     0.00000     0.00000    -3.92444
   352   1     3.92444     0.00000    -3.92444
   353   3     7.84889     0.00000    -3.92444
   354   1    15.69777     0.00000    -3.92444
   355   2    19.62221     0.00000    -3.92444
   356   2    23.54666     0.00000    -3.92444
   357   2   -23.54666     3.92444    -3.92444
   358   2   -19.62221     3.92444    -3.92444
   359   2   -15.69777     3.92444    -3.92444
   360   3   -11.77333     3.92444    -3.92444
   361   2    -7.84889     3.92444    -3.92444
   362   2    -3.92444     3.92444    -3.92444
   363   3     0.00000     3.92444    -3.92444
   364   3     3.92444     3.92444    -3.92444
   365   1     7.84889     3.92444    -3.92444
   366   1    11.77333     3.92444    -3.92444
   367   2    15.69777     3.92444    -3.92444
   368   2    19.62221     3.92444    -3.92444
   369   3   -19.62221     7.84889    -3.92444
   370   2   -15.69777     7.84889    -3.92444
   371   2   -11.77333     7.84889    -3.92444
   372   2    -7.84889     7.84889    -3.92444
   373   2     0.00000     7.84889    -3.92444
   374   3     3.92444     7.84889    -3.92444
   375   1     7.84889     7.84889    -3.92444
   376   3    11.77333     7.84889    -3.92444
   377   2    15.69777     7.84889    -3.92444
   378   3    19.62221     7.84889    -3.92444
   379   1   -19.62221    11.77333    -3.92444
   380   1   -15.69777    11.77333    -3.92444
   381   3   -11.77333    11.77333    -3.92444
   382   3    -7.84889    11.77333    -3.92444
   383   2     0.00000    11.77333    -3.92444
   384   3     3.92444    11.77333    -3.92444
   385   3     7.84889    11.77333    -3.92444
   386   1    15.69777    11.77333    -3.92444
   387   3    19.62221    11.77333    -3.92444
   388   2   -15.69777    15.69777    -3.92444
   389   2   -11.77333    15.69777    -3.92444
   390   2    -7.84889    15.69777    -3.92444
   391   2    -3.92444    15.69777    -3.92444
   392   1     0.00000    15.69777    -3.92444
   393   2     3.92444    15.69777    -3.92444
   394   2     7.84889    15.69777    -3.92444
   395   2    15.69777    15.69777    -3.92444
   396   2   -11.77333    19.62221    -3.92444
   397   3    -7.84889    19.62221    -3.92444
   398   3    -3.92444    19.62221    -3.92444
   399   3     0.00000    19.62221    -3.92444
   400   1     3.92444    19.62221    -3.92444
   401   1     7.84889    19.62221    -3.92444
   402   3    11.77333    19.62221    -3.92444
   403   1    -3.92444    23.54666    -3.92444
   404   1     3.92444    23.54666    -3.92444
   405   1    -7.84889   -23.54666     0.00000
   406   3    -3.92444   -23.54666     0.00000
   407   1     0.00000   -23.54666     0.00000
   408   3     7.84889   -23.54666     0.00000
   409   2   -11.77333   -19.62221     0.00000
   410   3    -7.84889   -19.62221     0.00000
   411   1    -3.92444   -19.62221     0.00000
   412   1     0.00000   -19.62221     0.00000
   413   3     3.92444   -19.62221     0.00000
   414   2     7.84889   -19.62221     0.00000
   415   3    11.77333   -19.62221     0.00000
   416   2   -15.69777   -15.69777     0.00000
   417   1   -11.77333   -15.69777     0.00000
   418   3    -7.84889   -15.69777     0.00000
   419   2    -3.92444   -15.69777     0.00000
   420   2     0.00000   -15.69777     0.00000
   421   3     3.92444   -15.69777     0.00000
   422   2     7.84889   -15.69777     0.00000
   423   1    11.77333   -15.69777     0.00000
   424   3    15.69777   -15.69777     0.00000
   425   2   -19.62221   -11.77333     0.00000
   426   1   -15.69777   -11.77333     0.00000
   427   1   -11.77333   -11.77333     0.00000
   428   3    -7.84889   -11.77333     0.00000
   429   1    -3.92444   -11.77333     0.00000
   430   1     0.00000   -11.77333     0.00000
   431   2     3.92444   -11.77333     0.00000
   432   3     7.84889   -11.77333     0.00000
   433   2    11.77333   -11.77333     0.00000
   434   2    15.69777   -11.77333     0.00000
   435   2    19.62221   -11.77333     0.00000
   436   2   -23.54666    -7.84889     0.00000
   437   3   -19.62221    -7.84889     0.00000
   438   2   -15.69777    -7.84889     0.00000
   439   2   -11.77333    -7.84889     0.00000
   440   2    -7.84889    -7.84889     0.00000
   441   2    -3.92444    -7.84889     0.00000
   442   1     0.00000    -7.84889     0.00000
   443   2     3.92444    -7.84889     0.00000
   444   3     7.84889    -7.84889     0.00000
   445   3    11.77333    -7.84889     0.00000
   446   1    15.69777    -7.84889     0.00000
   447   2    19.62221    -7.84889     0.00000
   448   2    23.54666    -7.84889     0.00000
   449   3   -23.54666    -3.92444     0.00000
   450   3   -19.62221    -3.92444     0.00000
   451   1   -15.69777    -3.92444     0.00000
   452   3    -3.92444    -3.92444     0.00000
   453   2     0.00000    -3.92444     0.00000
   454   2     3.92444    -3.92444     0.00000
   455   2     7.84889    -3.92444     0.00000
   456   1    11.77333    -3.92444     0.00000
   457   1    15.69777    -3.92444     0.00000
   458   1    19.62221    -3.92444     0.00000
   459   3    23.54666    -3.92444     0.00000
   460   3   -23.54666     0.00000     0.00000
   461   1   -19.62221     0.00000     0.00000
   462   3   -15.69777     0.00000     0.00000
   463   3    -7.84889     0.00000     0.00000
   464   2    -3.92444     0.00000     0.00000
   465   1     0.00000     0.00000     0.00000
   466   2     3.92444     0.00000     0.00000
   467   3     7.84889     0.00000     0.00000
   468   1    11.77333     0.00000     0.00000
   469   1    15.69777     0.00000     0.00000
   470   1    19.62221     0.00000     0.00000
   471   3   -23.54666     3.92444     0.00000
   472   3   -15.69777     3.92444     0.00000
   473   1    -7.84889     3.92444     0.00000
   474   2    -3.92444     3.92444     0.00000
   475   3     0.00000     3.92444     0.00000
   476   1     3.92444     3.92444     0.00000
   477   3     7.84889     3.92444     0.00000
   478   1    11.77333     3.92444     0.00000
   479   2    15.69777     3.92444     0.00000
   480   3    19.62221     3.92444     0.00000
   481   1    23.54666     3.92444     0.00000
   482   2   -23.54666     7.84889     0.00000
   483   1   -19.62221     7.84889     0.00000
   484   2   -15.69777     7.84889     0.00000
   485   3   -11.77333     7.84889     0.00000
   486   2    -7.84889     7.84889     0.00000
   487   2    -3.92444     7.84889     0.00000
   488   1     0.00000     7.84889     0.00000
   489   2     3.92444     7.84889     0.00000
   490   1     7.84889     7.84889     0.00000
   491   2    11.77333     7.84889     0.00000
   492   3    15.69777     7.84889     0.00000
   493   2    19.62221     7.84889     0.00000
   494   2    23.54666     7.84889     0.00000
   495   2   -19.62221    11.77333     0.00000
   496   2   -11.77333    11.77333     0.00000
   497   2    -7.84889    11.77333     0.00000
   498   2    -3.92444    11.77333     0.00000
   499   3     3.92444    11.77333     0.00000
   500   3     7.84889    11.77333     0.00000
   501   1    11.77333    11.77333     0.00000
   502   1    15.69777    11.77333     0.00000
   503   1   -15.69777    15.69777     0.00000
   504   1   -11.77333    15.69777     0.00000
   505   2    -7.84889    15.69777     0.00000
   506   3    -3.92444    15.69777     0.00000
   507   1     0.00000    15.69777     0.00000
   508   2     3.92444    15.69777     0.00000
   509   3     7.84889    15.69777     0.00000
   510   2    11.77333    15.69777     0.00000
   511   3    15.69777    15.69777     0.00000
   512   2   -11.77333    19.62221     0.00000
   513   2    -7.84889    19.62221     0.00000
   514   1    -3.92444    19.62221     0.00000
   515   3     0.00000    19.62221     0.00000
   516   1     3.92444    19.62221     0.00000
   517   3     7.84889    19.62221     0.00000
   518   1    11.77333    19.62221     0.00000
   519   2    -7.84889    23.54666     0.00000
   520   3    -3.92444    23.54666     0.00000
   521   2     0.00000    23.54666     0.00000
   522   3     3.92444    23.54666     0.00000
   523   1     7.84889    23.54666     0.00000
   524   1    -3.92444   -23.54666     3.92444
   525   3     0.00000   -23.54666     3.92444
   526   2     3.92444   -23.54666     3.92444
   527   1   -11.77333   -19.62221     3.92444
   528   1    -7.84889   -19.62221     3.92444
   529   3    -3.92444   -19.62221     3.92444
   530   3     3.92444   -19.62221     3.92444
   531   1     7.84889   -19.62221     3.92444
   532   2    11.77333   -19.62221     3.92444
   533   1   -15.69777   -15.69777     3.92444
   534   1   -11.77333   -15.69777     3.92444
   535   2    -7.84889   -15.69777     3.92444
   536   2    -3.92444   -15.69777     3.92444
   537   3     0.00000   -15.69777     3.92444
   538   1     3.92444   -15.69777     3.92444
   539   1     7.84889   -15.69777     3.92444
   540   3    11.77333   -15.69777     3.92444
   541   3    15.69777   -15.69777     3.92444
   542   2   -19.62221   -11.77333     3.92444
   543   2   -15.69777   -11.77333     3.92444
   544   2   -11.77333   -11.77333     3.92444
   545   2    -7.84889   -11.77333     3.92444
   546   2    -3.92444   -11.77333     3.92444
   547   1     0.00000   -11.77333     3.92444
   548   1     3.92444   -11.77333     3.92444
   549   1     7.84889   -11.77333     3.92444
   550   1    11.77333   -11.77333     3.92444
   551   2    15.69777   -11.77333     3.92444
   552   2    19.62221   -11.77333     3.92444
   553   1   -15.69777    -7.84889     3.92444
   554   1   -11.77333    -7.84889     3.92444
   555   1    -7.84889    -7.84889     3.92444
   556   2    -3.92444    -7.84889     3.92444
   557   3     0.00000    -7.84889     3.92444
   558   1     3.92444    -7.84889     3.92444
   559   2     7.84889    -7.84889     3.92444
   560   1    15.69777    -7.84889     3.92444
   561   3    19.62221    -7.84889     3.92444
   562   2   -23.54666    -3.92444     3.92444
   563   2   -19.62221    -3.92444     3.92444
   564   1   -15.69777    -3.92444     3.92444
   565   1   -11.77333    -3.92444     3.92444
   566   2    -7.84889    -3.92444     3.92444
   567   3    -3.92444    -3.92444     3.92444
   568   2     3.92444    -3.92444     3.92444
   569   3     7.84889    -3.92444     3.92444
   570   2    11.77333    -3.92444     3.92444
   571   2    15.69777    -3.92444     3.92444
   572   1    19.62221    -3.92444     3.92444
   573   3    23.54666    -3.92444     3.92444
   574   2   -19.62221     0.00000     3.92444
   575   3   -15.69777     0.00000     3.92444
   576   1   -11.77333     0.00000     3.92444
   577   2    -7.84889     0.00000     3.92444
   578   2    -3.92444     0.00000     3.92444
   579   2     0.00000     0.00000     3.92444
   580   3     3.92444     0.00000     3.92444
   581   1     7.84889     0.00000     3.92444
   582   1    11.77333     0.00000     3.92444
   583   2    15.69777     0.00000     3.92444
   584   1    19.62221     0.00000     3.92444
   585   2    23.54666     0.00000     3.92444
   586   2   -23.54666     3.92444     3.92444
   587   2   -19.62221     3.92444     3.92444
   588   2   -15.69777     3.92444     3.92444
   589   3   -11.77333     3.92444     3.92444
   590   2    -7.84889     3.92444     3.92444
   591   2    -3.92444     3.92444     3.92444
   592   1     0.00000     3.92444     3.92444
   593   3     3.92444     3.92444     3.92444
   594   1     7.84889     3.92444     3.92444
   595   3    15.69777     3.92444     3.92444
   596   1    19.62221     3.92444     3.92444
   597   1    23.54666     3.92444     3.92444
   598   2   -19.62221     7.84889     3.92444
   599   2   -15.69777     7.84889     3.92444
   600   3   -11.77333     7.84889     3.92444
   601   3    -7.84889     7.84889     3.92444
   602   2    -3.92444     7.84889     3.92444
   603   1     0.00000     7.84889     3.92444
   604   3     3.92444     7.84889     3.92444
   605   3     7.84889     7.84889     3.92444
   606   2    15.69777     7.84889     3.92444
   607   1    19.62221     7.84889     3.92444
   608   3   -19.62221    11.77333     3.92444
   609   2   -11.77333    11.77333     3.92444
   610   2    -7.84889    11.77333     3.92444
   611   3    -3.92444    11.77333     3.92444
   612   2     0.00000    11.77333     3.92444
   613   2     3.92444    11.77333     3.92444
   614   2     7.84889    11.77333     3.92444
   615   3    11.77333    11.77333     3.92444
   616   1    15.69777    11.77333     3.92444
   617   3   -15.69777    15.69777     3.92444
   618   2   -11.77333    15.69777     3.92444
   619   2    -7.84889    15.69777     3.92444
   620   1    -3.92444    15.69777     3.92444
   621   1     0.00000    15.69777     3.92444
   622   3     3.92444    15.69777     3.92444
   623   3    15.69777    15.69777     3.92444
   624   1   -11.77333    19.62221     3.92444
   625   2    -7.84889    19.62221     3.92444
   626   2    -3.92444    19.62221     3.92444
   627   2     0.00000    19.62221     3.92444
   628   1     3.92444    19.62221     3.92444
   629   3     7.84889    19.62221     3.92444
   630   2    11.77333    19.62221     3.92444
   631   2    -3.92444    23.54666     3.92444
   632   1     0.00000    23.54666     3.92444
   633   1     3.92444    23.54666     3.92444
   634   2     0.00000   -23.54666     7.84889