LAMMPS DATA FOR MEAM SIMULATION

   3660   atoms
      3   atom types

  -33.55   33.55   xlo xhi
  -33.55   33.55   ylo yhi
  -33.55   33.55   zlo zhi

 Atoms

     1   1     0.00000    -7.84889   -23.54666
     2   3    -3.92444    -3.92444   -23.54666
     3   1     0.00000    -3.92444   -23.54666
     4   2     3.92444    -3.92444   -23.54666
     5   3    -7.84889     0.00000   -23.54666
     6   2     0.00000     0.00000   -23.54666
     7   2     3.92444     0.00000   -23.54666
     8   1     7.84889     0.00000   -23.54666
     9   2    -3.92444     3.92444   -23.54666
    10   1     3.92444     3.92444   -23.54666
    11   1     0.00000     7.84889   -23.54666
    12   3    -7.84889   -11.77333   -19.62221
    13   3    -3.92444   -11.77333   -19.62221
    14   3     0.00000   -11.77333   -19.62221
    15   3     3.92444   -11.77333   -19.62221
    16   3     7.84889   -11.77333   -19.62221
    17   2   -11.77333    -7.84889   -19.62221
    18   2    -7.84889    -7.84889   -19.62221
    19   3    -3.92444    -7.84889   -19.62221
    20   2     0.00000    -7.84889   -19.62221
    21   2     3.92444    -7.84889   -19.62221
    22   2    11.77333    -7.84889   -19.62221
    23   1   -11.77333    -3.92444   -19.62221
    24   2    -7.84889    -3.92444   -19.62221
    25   3    -3.92444    -3.92444   -19.62221
    26   2     0.00000    -3.92444   -19.62221
    27   2     3.92444    -3.92444   -19.62221
    28   1     7.84889    -3.92444   -19.62221
    29   3    11.77333    -3.92444   -19.62221
    30   3   -11.77333     0.00000   -19.62221
    31   1    -7.84889     0.00000   -19.62221
    32   2    -3.92444     0.00000   -19.62221
    33   2     3.92444     0.00000   -19.62221
    34   2     7.84889     0.00000   -19.62221
    35   2    11.77333     0.00000   -19.62221
    36   3   -11.77333     3.92444   -19.62221
    37   3    -7.84889     3.92444   -19.62221
    38   1    -3.92444     3.92444   -19.62221
    39   3     0.00000     3.92444   -19.62221
    40   2     3.92444     3.92444   -19.62221
    41   2     7.84889     3.92444   -19.62221
    42   1    11.77333     3.92444   -19.62221
    43   2   -11.77333     7.84889   -19.62221
    44   3    -7.84889     7.84889   -19.62221
    45   3    -3.92444     7.84889   -19.62221
    46   1     0.00000     7.84889   -19.62221
    47   3     3.92444     7.84889   -19.62221
    48   2     7.84889     7.84889   -19.62221
    49   3    11.77333     7.84889   -19.62221
    50   2    -7.84889    11.77333   -19.62221
    51   1    -3.92444    11.77333   -19.62221
    52   2     0.00000    11.77333   -19.62221
    53   2     3.92444    11.77333   -19.62221
    54   1     7.84889    11.77333   -19.62221
    55   2    -7.84889   -15.69777   -15.69777
    56   3    -3.92444   -15.69777   -15.69777
    57   3     0.00000   -15.69777   -15.69777
    58   3   -11.77333   -11.77333   -15.69777
    59   1    -7.84889   -11.77333   -15.69777
    60   2    -3.92444   -11.77333   -15.69777
    61   3     0.00000   -11.77333   -15.69777
    62   2     3.92444   -11.77333   -15.69777
    63   2    11.77333   -11.77333   -15.69777
    64   1   -15.69777    -7.84889   -15.69777
    65   2   -11.77333    -7.84889   -15.69777
    66   1    -7.84889    -7.84889   -15.69777
    67   2    -3.92444    -7.84889   -15.69777
    68   1     0.00000    -7.84889   -15.69777
    69   1     3.92444    -7.84889   -15.69777
    70   2     7.84889    -7.84889   -15.69777
    71   2    11.77333    -7.84889   -15.69777
    72   1    15.69777    -7.84889   -15.69777
    73   2   -15.69777    -3.92444   -15.69777
    74   3   -11.77333    -3.92444   -15.69777
    75   2    -7.84889    -3.92444   -15.69777
    76   1    -3.92444    -3.92444   -15.69777
    77   1     0.00000    -3.92444   -15.69777
    78   3     3.92444    -3.92444   -15.69777
    79   2     7.84889    -3.92444   -15.69777
    80   3    11.77333    -3.92444   -15.69777
    81   2    15.69777    -3.92444   -15.69777
    82   3   -15.69777     0.00000   -15.69777
    83   2   -11.77333     0.00000   -15.69777
    84   3    -3.92444     0.00000   -15.69777
    85   3     0.00000     0.00000   -15.69777
    86   1     3.92444     0.00000   -15.69777
    87   2     7.84889     0.00000   -15.69777
    88   1    11.77333     0.00000   -15.69777
    89   2    15.69777     0.00000   -15.69777
    90   3   -15.69777     3.92444   -15.69777
    91   2   -11.77333     3.92444   -15.69777
    92   2    -7.84889     3.92444   -15.69777
    93   2    -3.92444     3.92444   -15.69777
    94   1     0.00000     3.92444   -15.69777
    95   2     3.92444     3.92444   -15.69777
    96   3     7.84889     3.92444   -15.69777
    97   1    11.77333     3.92444   -15.69777
    98   3   -15.69777     7.84889   -15.69777
    99   3   -11.77333     7.84889   -15.69777
   100   1    -7.84889     7.84889   -15.69777
   101   2    -3.92444     7.84889   -15.69777
   102   2     0.00000     7.84889   -15.69777
   103   1     3.92444     7.84889   -15.69777
   104   3     7.84889     7.84889   -15.69777
   105   3    11.77333     7.84889   -15.69777
   106   1   -11.77333    11.77333   -15.69777
   107   1    -7.84889    11.77333   -15.69777
   108   1    -3.92444    11.77333   -15.69777
   109   2     3.92444    11.77333   -15.69777
   110   2     7.84889    11.77333   -15.69777
   111   3    11.77333    11.77333   -15.69777
   112   3    -7.84889    15.69777   -15.69777
   113   3    -3.92444    15.69777   -15.69777
   114   2    -7.84889   -19.62221   -11.77333
   115   3    -3.92444   -19.62221   -11.77333
   116   3     7.84889   -19.62221   -11.77333
   117   3   -11.77333   -15.69777   -11.77333
   118   2    -3.92444   -15.69777   -11.77333
   119   2     0.00000   -15.69777   -11.77333
   120   3     3.92444   -15.69777   -11.77333
   121   1     7.84889   -15.69777   -11.77333
   122   2   -15.69777   -11.77333   -11.77333
   123   3   -11.77333   -11.77333   -11.77333
   124   2    -7.84889   -11.77333   -11.77333
   125   3     0.00000   -11.77333   -11.77333
   126   3     3.92444   -11.77333   -11.77333
   127   2     7.84889   -11.77333   -11.77333
   128   3    11.77333   -11.77333   -11.77333
   129   1    15.69777   -11.77333   -11.77333
   130   2   -19.62221    -7.84889   -11.77333
   131   1   -15.69777    -7.84889   -11.77333
   132   2   -11.77333    -7.84889   -11.77333
   133   1    -7.84889    -7.84889   -11.77333
   134   2     0.00000    -7.84889   -11.77333
   135   1     3.92444    -7.84889   -11.77333
   136   2     7.84889    -7.84889   -11.77333
   137   3    11.77333    -7.84889   -11.77333
   138   2    15.69777    -7.84889   -11.77333
   139   2    19.62221    -7.84889   -11.77333
   140   2   -19.62221    -3.92444   -11.77333
   141   2   -15.69777    -3.92444   -11.77333
   142   2   -11.77333    -3.92444   -11.77333
   143   2    -7.84889    -3.92444   -11.77333
   144   2    -3.92444    -3.92444   -11.77333
   145   2     0.00000    -3.92444   -11.77333
   146   1     3.92444    -3.92444   -11.77333
   147   1     7.84889    -3.92444   -11.77333
   148   2    11.77333    -3.92444   -11.77333
   149   1    19.62221    -3.92444   -11.77333
   150   3   -19.62221     0.00000   -11.77333
   151   2   -15.69777     0.00000   -11.77333
   152   2   -11.77333     0.00000   -11.77333
   153   1    -3.92444     0.00000   -11.77333
   154   3     0.00000     0.00000   -11.77333
   155   3     7.84889     0.00000   -11.77333
   156   1    11.77333     0.00000   -11.77333
   157   2   -19.62221     3.92444   -11.77333
   158   2    -7.84889     3.92444   -11.77333
   159   2    -3.92444     3.92444   -11.77333
   160   2     3.92444     3.92444   -11.77333
   161   1     7.84889     3.92444   -11.77333
   162   3    11.77333     3.92444   -11.77333
   163   2    15.69777     3.92444   -11.77333
   164   2   -19.62221     7.84889   -11.77333
   165   2    -7.84889     7.84889   -11.77333
   166   2     0.00000     7.84889   -11.77333
   167   3     3.92444     7.84889   -11.77333
   168   3     7.84889     7.84889   -11.77333
   169   2    11.77333     7.84889   -11.77333
   170   3    15.69777     7.84889   -11.77333
   171   1    19.62221     7.84889   -11.77333
   172   1   -11.77333    11.77333   -11.77333
   173   3    -7.84889    11.77333   -11.77333
   174   1     0.00000    11.77333   -11.77333
   175   2     3.92444    11.77333   -11.77333
   176   1     7.84889    11.77333   -11.77333
   177   1    11.77333    11.77333   -11.77333
   178   2    15.69777    11.77333   -11.77333
   179   2   -11.77333    15.69777   -11.77333
   180   2    -7.84889    15.69777   -11.77333
   181   2    -3.92444    15.69777   -11.77333
   182   2     3.92444    15.69777   -11.77333
   183   2     7.84889    15.69777   -11.77333
   184   2    11.77333    15.69777   -11.77333
   185   2    -3.92444    19.62221   -11.77333
   186   3     0.00000    19.62221   -11.77333
   187   1     3.92444    19.62221   -11.77333
   188   1     0.00000   -23.54666    -7.84889
   189   2   -11.77333   -19.62221    -7.84889
   190   2    -7.84889   -19.62221    -7.84889
   191   2    -3.92444   -19.62221    -7.84889
   192   2     0.00000   -19.62221    -7.84889
   193   1     3.92444   -19.62221    -7.84889
   194   2   -15.69777   -15.69777    -7.84889
   195   3   -11.77333   -15.69777    -7.84889
   196   3    -3.92444   -15.69777    -7.84889
   197   2     0.00000   -15.69777    -7.84889
   198   2     3.92444   -15.69777    -7.84889
   199   2    11.77333   -15.69777    -7.84889
   200   1    15.69777   -15.69777    -7.84889
   201   3   -19.62221   -11.77333    -7.84889
   202   3   -11.77333   -11.77333    -7.84889
   203   3    -7.84889   -11.77333    -7.84889
   204   2    -3.92444   -11.77333    -7.84889
   205   2     0.00000   -11.77333    -7.84889
   206   1     7.84889   -11.77333    -7.84889
   207   2    11.77333   -11.77333    -7.84889
   208   2    15.69777   -11.77333    -7.84889
   209   1    19.62221   -11.77333    -7.84889
   210   2   -19.62221    -7.84889    -7.84889
   211   3   -15.69777    -7.84889    -7.84889
   212   2   -11.77333    -7.84889    -7.84889
   213   1    -7.84889    -7.84889    -7.84889
   214   1    -3.92444    -7.84889    -7.84889
   215   2     7.84889    -7.84889    -7.84889
   216   3    11.77333    -7.84889    -7.84889
   217   2    15.69777    -7.84889    -7.84889
   218   2    19.62221    -7.84889    -7.84889
   219   1   -19.62221    -3.92444    -7.84889
   220   3   -15.69777    -3.92444    -7.84889
   221   1   -11.77333    -3.92444    -7.84889
   222   2    -7.84889    -3.92444    -7.84889
   223   2    -3.92444    -3.92444    -7.84889
   224   2     0.00000    -3.92444    -7.84889
   225   3     3.92444    -3.92444    -7.84889
   226   2     7.84889    -3.92444    -7.84889
   227   1    11.77333    -3.92444    -7.84889
   228   3    15.69777    -3.92444    -7.84889
   229   2    19.62221    -3.92444    -7.84889
   230   2   -23.54666     0.00000    -7.84889
   231   1   -19.62221     0.00000    -7.84889
   232   2   -15.69777     0.00000    -7.84889
   233   3    -7.84889     0.00000    -7.84889
   234   1    -3.92444     0.00000    -7.84889
   235   2     0.00000     0.00000    -7.84889
   236   2     3.92444     0.00000    -7.84889
   237   1     7.84889     0.00000    -7.84889
   238   2    11.77333     0.00000    -7.84889
   239   1    15.69777     0.00000    -7.84889
   240   3    19.62221     0.00000    -7.84889
   241   2    23.54666     0.00000    -7.84889
   242   3   -15.69777     3.92444    -7.84889
   243   2   -11.77333     3.92444    -7.84889
   244   3    -7.84889     3.92444    -7.84889
   245   3    -3.92444     3.92444    -7.84889
   246   3     0.00000     3.92444    -7.84889
   247   2     3.92444     3.92444    -7.84889
   248   1     7.84889     3.92444    -7.84889
   249   1    11.77333     3.92444    -7.84889
   250   2    15.69777     3.92444    -7.84889
   251   3    19.62221     3.92444    -7.84889
   252   1   -19.62221     7.84889    -7.84889
   253   1   -15.69777     7.84889    -7.84889
   254   2   -11.77333     7.84889    -7.84889
   255   2    -7.84889     7.84889    -7.84889
   256   3    -3.92444     7.84889    -7.84889
   257   2     0.00000     7.84889    -7.84889
   258   1     3.92444     7.84889    -7.84889
   259   2     7.84889     7.84889    -7.84889
   260   2    11.77333     7.84889    -7.84889
   261   3    15.69777     7.84889    -7.84889
   262   3    19.62221     7.84889    -7.84889
   263   3   -19.62221    11.77333    -7.84889
   264   2   -11.77333    11.77333    -7.84889
   265   3    -7.84889    11.77333    -7.84889
   266   1     0.00000    11.77333    -7.84889
   267   2     3.92444    11.77333    -7.84889
   268   3     7.84889    11.77333    -7.84889
   269   2    11.77333    11.77333    -7.84889
   270   2    15.69777    11.77333    -7.84889
   271   1    19.62221    11.77333    -7.84889
   272   2   -15.69777    15.69777    -7.84889
   273   3   -11.77333    15.69777    -7.84889
   274   2    -3.92444    15.69777    -7.84889
   275   1     0.00000    15.69777    -7.84889
   276   1     3.92444    15.69777    -7.84889
   277   3     7.84889    15.69777    -7.84889
   278   2    11.77333    15.69777    -7.84889
   279   3    15.69777    15.69777    -7.84889
   280   1   -11.77333    19.62221    -7.84889
   281   1    -7.84889    19.62221    -7.84889
   282   2     0.00000    19.62221    -7.84889
   283   2     3.92444    19.62221    -7.84889
   284   2     7.84889    19.62221    -7.84889
   285   3    11.77333    19.62221    -7.84889
   286   2    -3.92444   -23.54666    -3.92444
   287   2     0.00000   -23.54666    -3.92444
   288   2     3.92444   -23.54666    -3.92444
   289   2   -11.77333   -19.62221    -3.92444
   290   1    -3.92444   -19.62221    -3.92444
   291   3     0.00000   -19.62221    -3.92444
   292   2     3.92444   -19.62221    -3.92444
   293   2     7.84889   -19.62221    -3.92444
   294   2    11.77333   -19.62221    -3.92444
   295   2   -11.77333   -15.69777    -3.92444
   296   3    -7.84889   -15.69777    -3.92444
   297   2    -3.92444   -15.69777    -3.92444
   298   2     0.00000   -15.69777    -3.92444
   299   1     3.92444   -15.69777    -3.92444
   300   2    15.69777   -15.69777    -3.92444
   301   1   -19.62221   -11.77333    -3.92444
   302   2   -15.69777   -11.77333    -3.92444
   303   3   -11.77333   -11.77333    -3.92444
   304   2    -7.84889   -11.77333    -3.92444
   305   1    -3.92444   -11.77333    -3.92444
   306   2     3.92444   -11.77333    -3.92444
   307   3     7.84889   -11.77333    -3.92444
   308   3    11.77333   -11.77333    -3.92444
   309   1    15.69777   -11.77333    -3.92444
   310   1   -19.62221    -7.84889    -3.92444
   311   1   -11.77333    -7.84889    -3.92444
   312   1    -7.84889    -7.84889    -3.92444
   313   3    -3.92444    -7.84889    -3.92444
   314   2     0.00000    -7.84889    -3.92444
   315   3     3.92444    -7.84889    -3.92444
   316   1     7.84889    -7.84889    -3.92444
   317   3    15.69777    -7.84889    -3.92444
   318   3    19.62221    -7.84889    -3.92444
   319   1   -23.54666    -3.92444    -3.92444
   320   2   -19.62221    -3.92444    -3.92444
   321   2   -15.69777    -3.92444    -3.92444
   322   3   -11.77333    -3.92444    -3.92444
   323   2    -7.84889    -3.92444    -3.92444
   324   2    -3.92444    -3.92444    -3.92444
   325   2     7.84889    -3.92444    -3.92444
   326   1    11.77333    -3.92444    -3.92444
   327   3    15.69777    -3.92444    -3.92444
   328   3    19.62221    -3.92444    -3.92444
   329   3    23.54666    -3.92444    -3.92444
   330   2   -23.54666     0.00000    -3.92444
   331   3   -19.62221     0.00000    -3.92444
   332   1   -15.69777     0.00000    -3.92444
   333   1   -11.77333     0.00000    -3.92444
   334   3    -7.84889     0.00000    -3.92444
   335   3    -3.92444     0.00000    -3.92444
   336   2     0.00000     0.00000    -3.92444
   337   3     3.92444     0.00000    -3.92444
   338   3     7.84889     0.00000    -3.92444
   339   1    11.77333     0.00000    -3.92444
   340   3    15.69777     0.00000    -3.92444
   341   2    19.62221     0.00000    -3.92444
   342   1   -23.54666     3.92444    -3.92444
   343   2   -19.62221     3.92444    -3.92444
   344   2   -15.69777     3.92444    -3.92444
   345   3   -11.77333     3.92444    -3.92444
   346   2    -3.92444     3.92444    -3.92444
   347   1     0.00000     3.92444    -3.92444
   348   1     7.84889     3.92444    -3.92444
   349   2    11.77333     3.92444    -3.92444
   350   2    15.69777     3.92444    -3.92444
   351   2    19.62221     3.92444    -3.92444
   352   3   -19.62221     7.84889    -3.92444
   353   2   -15.69777     7.84889    -3.92444
   354   1   -11.77333     7.84889    -3.92444
   355   2    -7.84889     7.84889    -3.92444
   356   1    -3.92444     7.84889    -3.92444
   357   3     0.00000     7.84889    -3.92444
   358   1     3.92444     7.84889    -3.92444
   359   3     7.84889     7.84889    -3.92444
   360   1    11.77333     7.84889    -3.92444
   361   2    15.69777     7.84889    -3.92444
   362   1    19.62221     7.84889    -3.92444
   363   2   -19.62221    11.77333    -3.92444
   364   1   -15.69777    11.77333    -3.92444
   365   2   -11.77333    11.77333    -3.92444
   366   3    -7.84889    11.77333    -3.92444
   367   1     0.00000    11.77333    -3.92444
   368   3     3.92444    11.77333    -3.92444
   369   3     7.84889    11.77333    -3.92444
   370   3    11.77333    11.77333    -3.92444
   371   2    15.69777    11.77333    -3.92444
   372   3    19.62221    11.77333    -3.92444
   373   2   -11.77333    15.69777    -3.92444
   374   2    -7.84889    15.69777    -3.92444
   375   3    -3.92444    15.69777    -3.92444
   376   2     0.00000    15.69777    -3.92444
   377   2     3.92444    15.69777    -3.92444
   378   1     7.84889    15.69777    -3.92444
   379   1    11.77333    15.69777    -3.92444
   380   2    15.69777    15.69777    -3.92444
   381   2   -11.77333    19.62221    -3.92444
   382   2    -7.84889    19.62221    -3.92444
   383   2    -3.92444    19.62221    -3.92444
   384   1     0.00000    19.62221    -3.92444
   385   2     3.92444    19.62221    -3.92444
   386   3     7.84889    19.62221    -3.92444
   387   2    11.77333    19.62221    -3.92444
   388   3    -3.92444    23.54666    -3.92444
   389   1     0.00000    23.54666    -3.92444
   390   3     3.92444    23.54666    -3.92444
   391   3    -3.92444   -23.54666     0.00000
   392   1     0.00000   -23.54666     0.00000
   393   2     3.92444   -23.54666     0.00000
   394   2     7.84889   -23.54666     0.00000
   395   1   -11.77333   -19.62221     0.00000
   396   3    -7.84889   -19.62221     0.00000
   397   1    -3.92444   -19.62221     0.00000
   398   1     0.00000   -19.62221     0.00000
   399   2     3.92444   -19.62221     0.00000
   400   3    11.77333   -19.62221     0.00000
   401   3   -15.69777   -15.69777     0.00000
   402   1   -11.77333   -15.69777     0.00000
   403   2    -3.92444   -15.69777     0.00000
   404   3     0.00000   -15.69777     0.00000
   405   3     3.92444   -15.69777     0.00000
   406   1    11.77333   -15.69777     0.00000
   407   2    15.69777   -15.69777     0.00000
   408   1   -19.62221   -11.77333     0.00000
   409   1   -15.69777   -11.77333     0.00000
   410   1    -7.84889   -11.77333     0.00000
   411   2     0.00000   -11.77333     0.00000
   412   2     3.92444   -11.77333     0.00000
   413   1     7.84889   -11.77333     0.00000
   414   2    11.77333   -11.77333     0.00000
   415   2    15.69777   -11.77333     0.00000
   416   2    19.62221   -11.77333     0.00000
   417   1   -23.54666    -7.84889     0.00000
   418   2   -19.62221    -7.84889     0.00000
   419   1   -15.69777    -7.84889     0.00000
   420   2   -11.77333    -7.84889     0.00000
   421   3    -3.92444    -7.84889     0.00000
   422   2     0.00000    -7.84889     0.00000
   423   2     3.92444    -7.84889     0.00000
   424   2     7.84889    -7.84889     0.00000
   425   2    15.69777    -7.84889     0.00000
   426   2    19.62221    -7.84889     0.00000
   427   2   -23.54666    -3.92444     0.00000
   428   1   -19.62221    -3.92444     0.00000
   429   3   -15.69777    -3.92444     0.00000
   430   2    -7.84889    -3.92444     0.00000
   431   3    -3.92444    -3.92444     0.00000
   432   2     3.92444    -3.92444     0.00000
   433   3     7.84889    -3.92444     0.00000
   434   2    11.77333    -3.92444     0.00000
   435   1    15.69777    -3.92444     0.00000
   436   3    19.62221    -3.92444     0.00000
   437   3    23.54666    -3.92444     0.00000
   438   2   -23.54666     0.00000     0.00000
   439   2   -19.62221     0.00000     0.00000
   440   2   -15.69777     0.00000     0.00000
   441   2   -11.77333     0.00000     0.00000
   442   1    -7.84889     0.00000     0.00000
   443   2    -3.92444     0.00000     0.00000
   444   2     3.92444     0.00000     0.00000
   445   1     7.84889     0.00000     0.00000
   446   2    11.77333     0.00000     0.00000
   447   2    15.69777     0.00000     0.00000
   448   3    23.54666     0.00000     0.00000
   449   1   -23.54666     3.92444     0.00000
   450   2   -19.62221     3.92444     0.00000
   451   3   -15.69777     3.92444     0.00000
   452   1   -11.77333     3.92444     0.00000
   453   3    -3.92444     3.92444     0.00000
   454   1     0.00000     3.92444     0.00000
   455   2     7.84889     3.92444     0.00000
   456   1    19.62221     3.92444     0.00000
   457   1    23.54666     3.92444     0.00000
   458   3   -15.69777     7.84889     0.00000
   459   3   -11.77333     7.84889     0.00000
   460   2    -7.84889     7.84889     0.00000
   461   1     3.92444     7.84889     0.00000
   462   2     7.84889     7.84889     0.00000
   463   1    11.77333     7.84889     0.00000
   464   3    15.69777     7.84889     0.00000
   465   2    19.62221     7.84889     0.00000
   466   3   -19.62221    11.77333     0.00000
   467   1   -15.69777    11.77333     0.00000
   468   3   -11.77333    11.77333     0.00000
   469   2    -7.84889    11.77333     0.00000
   470   1    -3.92444    11.77333     0.00000
   471   3     0.00000    11.77333     0.00000
   472   3     3.92444    11.77333     0.00000
   473   1     7.84889    11.77333     0.00000
   474   2    11.77333    11.77333     0.00000
   475   2    19.62221    11.77333     0.00000
   476   2   -15.69777    15.69777     0.00000
   477   2   -11.77333    15.69777     0.00000
   478   2    -7.84889    15.69777     0.00000
   479   2    -3.92444    15.69777     0.00000
   480   2     3.92444    15.69777     0.00000
   481   1     7.84889    15.69777     0.00000
   482   3    11.77333    15.69777     0.00000
   483   1    15.69777    15.69777     0.00000
   484   3   -11.77333    19.62221     0.00000
   485   2    -7.84889    19.62221     0.00000
   486   2     0.00000    19.62221     0.00000
   487   1     3.92444    19.62221     0.00000
   488   1     7.84889    19.62221     0.00000
   489   3    -7.84889    23.54666     0.00000
   490   2    -3.92444    23.54666     0.00000
   491   2     0.00000    23.54666     0.00000
   492   2     3.92444    23.54666     0.00000
   493   2     3.92444   -23.54666     3.92444
   494   3   -11.77333   -19.62221     3.92444
   495   1    -7.84889   -19.62221     3.92444
   496   1    -3.92444   -19.62221     3.92444
   497   1     0.00000   -19.62221     3.92444
   498   2     3.92444   -19.62221     3.92444
   499   3     7.84889   -19.62221     3.92444
   500   2    11.77333   -19.62221     3.92444
   501   2   -15.69777   -15.69777     3.92444
   502   3   -11.77333   -15.69777     3.92444
   503   2    -3.92444   -15.69777     3.92444
   504   2     0.00000   -15.69777     3.92444
   505   2     3.92444   -15.69777     3.92444
   506   3     7.84889   -15.69777     3.92444
   507   1    11.77333   -15.69777     3.92444
   508   3    15.69777   -15.69777     3.92444
   509   1   -19.62221   -11.77333     3.92444
   510   2   -15.69777   -11.77333     3.92444
   511   1   -11.77333   -11.77333     3.92444
   512   1    -7.84889   -11.77333     3.92444
   513   1    -3.92444   -11.77333     3.92444
   514   1     3.92444   -11.77333     3.92444
   515   1     7.84889   -11.77333     3.92444
   516   3    11.77333   -11.77333     3.92444
   517   3    15.69777   -11.77333     3.92444
   518   2    19.62221   -11.77333     3.92444
   519   2   -15.69777    -7.84889     3.92444
   520   2   -11.77333    -7.84889     3.92444
   521   2    -7.84889    -7.84889     3.92444
   522   3    -3.92444    -7.84889     3.92444
   523   2     0.00000    -7.84889     3.92444
   524   2     3.92444    -7.84889     3.92444
   525   1    11.77333    -7.84889     3.92444
   526   2    15.69777    -7.84889     3.92444
   527   2    19.62221    -7.84889     3.92444
   528   1   -23.54666    -3.92444     3.92444
   529   3   -19.62221    -3.92444     3.92444
   530   2   -15.69777    -3.92444     3.92444
   531   1   -11.77333    -3.92444     3.92444
   532   2    -7.84889    -3.92444     3.92444
   533   2    -3.92444    -3.92444     3.92444
   534   2     0.00000    -3.92444     3.92444
   535   1    11.77333    -3.92444     3.92444
   536   2    15.69777    -3.92444     3.92444
   537   2    19.62221    -3.92444     3.92444
   538   2    23.54666    -3.92444     3.92444
   539   2   -23.54666     0.00000     3.92444
   540   3   -19.62221     0.00000     3.92444
   541   1   -15.69777     0.00000     3.92444
   542   2   -11.77333     0.00000     3.92444
   543   1    -7.84889     0.00000     3.92444
   544   3    -3.92444     0.00000     3.92444
   545   2     0.00000     0.00000     3.92444
   546   3     3.92444     0.00000     3.92444
   547   1     7.84889     0.00000     3.92444
   548   2    11.77333     0.00000     3.92444
   549   2    15.69777     0.00000     3.92444
   550   2    19.62221     0.00000     3.92444
   551   1    23.54666     0.00000     3.92444
   552   2   -19.62221     3.92444     3.92444
   553   2   -15.69777     3.92444     3.92444
   554   2    -7.84889     3.92444     3.92444
   555   2     0.00000     3.92444     3.92444
   556   3     3.92444     3.92444     3.92444
   557   2     7.84889     3.92444     3.92444
   558   2    11.77333     3.92444     3.92444
   559   3    19.62221     3.92444     3.92444
   560   2    23.54666     3.92444     3.92444
   561   1   -19.62221     7.84889     3.92444
   562   1   -11.77333     7.84889     3.92444
   563   2    -7.84889     7.84889     3.92444
   564   3    -3.92444     7.84889     3.92444
   565   2     0.00000     7.84889     3.92444
   566   1     3.92444     7.84889     3.92444
   567   2     7.84889     7.84889     3.92444
   568   1    11.77333     7.84889     3.92444
   569   1    15.69777     7.84889     3.92444
   570   2    19.62221     7.84889     3.92444
   571   2   -19.62221    11.77333     3.92444
   572   2   -15.69777    11.77333     3.92444
   573   1   -11.77333    11.77333     3.92444
   574   2    -3.92444    11.77333     3.92444
   575   3     0.00000    11.77333     3.92444
   576   3     3.92444    11.77333     3.92444
   577   2    11.77333    11.77333     3.92444
   578   2    15.69777    11.77333     3.92444
   579   2    19.62221    11.77333     3.92444
   580   2   -11.77333    15.69777     3.92444
   581   1    -7.84889    15.69777     3.92444
   582   1     0.00000    15.69777     3.92444
   583   2     3.92444    15.69777     3.92444
   584   3     7.84889    15.69777     3.92444
   585   2    11.77333    15.69777     3.92444
   586   2    15.69777    15.69777     3.92444
   587   1    -7.84889    19.62221     3.92444
   588   3    -3.92444    19.62221     3.92444
   589   1     0.00000    19.62221     3.92444
   590   1     3.92444    19.62221     3.92444
   591   3     7.84889    19.62221     3.92444
   592   1    11.77333    19.62221     3.92444
   593   3    -3.92444    23.54666     3.92444
   594   1     0.00000   -23.54666     7.84889
   595   2   -11.77333   -19.62221     7.84889
   596   3    -7.84889   -19.62221     7.84889
   597   1    -3.92444   -19.62221     7.84889
   598   1     7.84889   -19.62221     7.84889
   599   2    11.77333   -19.62221     7.84889
   600   3   -15.69777   -15.69777     7.84889
   601   3    -7.84889   -15.69777     7.84889
   602   3     3.92444   -15.69777     7.84889
   603   2     7.84889   -15.69777     7.84889
   604   2    11.77333   -15.69777     7.84889
   605   3   -19.62221   -11.77333     7.84889
   606   2   -11.77333   -11.77333     7.84889
   607   2    -7.84889   -11.77333     7.84889
   608   1    -3.92444   -11.77333     7.84889
   609   1     0.00000   -11.77333     7.84889
   610   3     3.92444   -11.77333     7.84889
   611   3     7.84889   -11.77333     7.84889
   612   3    11.77333   -11.77333     7.84889
   613   3    15.69777   -11.77333     7.84889
   614   1    19.62221   -11.77333     7.84889
   615   3   -15.69777    -7.84889     7.84889
   616   1   -11.77333    -7.84889     7.84889
   617   2    -7.84889    -7.84889     7.84889
   618   2    -3.92444    -7.84889     7.84889
   619   2     0.00000    -7.84889     7.84889
   620   3     7.84889    -7.84889     7.84889
   621   2    15.69777    -7.84889     7.84889
   622   2    19.62221    -7.84889     7.84889
   623   1   -19.62221    -3.92444     7.84889
   624   1   -11.77333    -3.92444     7.84889
   625   3    -7.84889    -3.92444     7.84889
   626   3    -3.92444    -3.92444     7.84889
   627   2     0.00000    -3.92444     7.84889
   628   1     3.92444    -3.92444     7.84889
   629   1    11.77333    -3.92444     7.84889
   630   1    15.69777    -3.92444     7.84889
   631   2    19.62221    -3.92444     7.84889
   632   2   -23.54666     0.00000     7.84889
   633   2   -15.69777     0.00000     7.84889
   634   3   -11.77333     0.00000     7.84889