4321
 Atoms. Timestep: 3600
2 -0.0686503 -7.60137 -22.3744
2 -3.78578 -3.56623 -23.184
1 0.394751 -4.28312 -22.9336
1 4.00572 -4.20546 -22.8556
2 -7.67279 -0.181853 -21.9719
2 -3.26083 -0.699596 -22.8779
1 0.361597 -0.627749 -22.8091
2 3.86536 -0.231416 -22.6479
1 7.23584 -0.231931 -22.7643
2 -3.50859 4.224 -22.9552
1 0.401783 3.37219 -22.7487
2 3.60373 3.43657 -22.7841
2 -0.017514 7.23778 -22.7111
2 -7.61937 -11.3839 -19.003
1 -4.06289 -12.1652 -19.4342
2 0.0257805 -11.4011 -18.8454
2 3.78066 -12.4577 -20.2947
2 7.78495 -11.36 -18.6679
2 -11.5671 -7.89695 -19.0088
2 -7.57763 -7.60125 -18.8691
1 -3.8254 -7.62226 -18.8565
1 -0.0175166 -7.68618 -18.7477
1 3.84904 -7.78865 -18.9506
1 7.56989 -7.62983 -18.9132
1 11.7555 -8.14851 -19.1515
2 -12.0075 -4.36994 -19.6836
2 -7.85423 -3.73588 -18.9998
3 -3.78456 -3.9785 -18.7852
1 0.138267 -3.92034 -18.897
2 3.86118 -4.00094 -18.9848
2 7.49959 -4.01747 -18.8514
2 11.9301 -4.30663 -19.2027
2 -11.6119 -0.0741974 -19.2917
2 -7.17391 -0.176953 -19.1788
1 -3.67022 -0.29599 -18.8183
2 0.0903156 -0.0684456 -18.8281
3 3.76059 -0.102865 -18.7525
1 7.4884 -0.119732 -18.8233
3 11.3096 -0.051238 -18.7814
2 -11.6207 4.6422 -19.3551
2 -7.41067 3.73741 -18.9303
3 -3.57709 3.75416 -18.7503
1 -0.0342033 3.80396 -18.8954
2 3.77612 3.8484 -18.8184
3 7.56883 3.53806 -18.8577
2 11.2374 3.67183 -18.9318
2 -11.9484 7.30122 -19.0424
2 -7.26014 7.52665 -18.977
1 -3.80766 7.48287 -18.9662
2 0.0742591 7.64548 -18.8577
3 3.88246 7.6006 -18.9357
2 7.55503 7.44137 -18.8045
2 11.4346 7.62416 -18.9916
2 -7.85769 10.9786 -19.0182
2 -3.56294 11.8764 -18.9993
2 0.41665 11.3629 -19.2566
2 3.86382 11.2435 -19.1595
1 7.79054 11.1943 -19.0194
1 -8.23082 -15.2374 -15.4306
2 -3.88095 -15.1405 -15.2829
2 0.160566 -15.402 -15.0231
1 3.9194 -15.1666 -15.1899
1 8.18212 -15.2032 -15.2345
1 -11.5039 -11.4746 -15.2161
1 -7.72513 -11.3639 -14.9914
3 -3.81911 -11.4196 -14.9521
2 0.0603102 -11.5002 -15.0113
1 3.79103 -11.5411 -15.2458
3 7.57029 -11.3519 -14.8073
1 11.7763 -11.5889 -15.2164
1 -15.305 -7.85672 -14.9293
2 -11.7298 -7.69604 -15.1377
1 -7.5941 -7.54309 -15.2034
3 -3.71286 -7.65769 -15.1524
2 0.0594505 -7.56868 -14.9666
1 3.70967 -7.52566 -14.8189
1 7.68225 -7.51895 -14.8595
1 11.4056 -7.54699 -14.8903
2 15.4816 -8.36518 -15.434
2 -15.2099 -3.85083 -15.2459
2 -11.1867 -3.51921 -15.16
1 -7.52352 -3.92667 -15.03
2 -3.70165 -3.78304 -15.1089
3 0.0352899 -3.86687 -15.0889
3 3.75897 -3.87603 -15.0291
2 7.45559 -3.87165 -14.8039
2 11.136 -3.77605 -14.9981
1 15.1932 -3.93268 -15.3335
2 -14.7983 -0.0513089 -15.1019
2 -11.1763 0.152261 -15.0376
2 -7.425 0.0852998 -14.9982
2 -3.79876 0.0316749 -14.824
1 0.18034 -0.0450395 -14.9053
3 3.7098 0.104998 -14.9146
2 7.44315 0.157009 -15.0716
2 11.2319 -0.144533 -14.9969
2 14.9903 -0.13032 -15.0546
2 -15.3062 4.1254 -15.3174
2 -11.2699 3.99005 -15.1663
3 -7.51949 3.89155 -15.1275
1 -3.76741 3.71647 -14.9706
1 0.0457777 3.73779 -15.0231
2 3.79267 3.72231 -14.9334
1 7.57457 3.68595 -15.075
3 11.3139 3.64492 -15.1571
2 15.0106 3.682 -15.2167
1 -15.3461 7.70197 -15.3115
1 -11.3784 7.75772 -15.1511
2 -7.38757 7.40063 -14.9611
2 -3.66799 7.46974 -14.8821
2 0.125408 7.48458 -15.1137
3 3.96675 7.52037 -15.1431
3 7.52455 7.52498 -15.1137
1 11.438 7.6244 -15.1341
1 15.109 7.68349 -15.1558
3 -11.3357 11.0986 -15.2446
2 -7.35479 11.3052 -14.997
2 -3.6923 11.252 -15.0645
3 0.180006 11.216 -14.9922
2 4.00278 11.317 -15.1101
1 7.44884 11.3019 -15.2332
2 11.5272 11.5928 -15.1609
2 -7.77987 14.7887 -15.3247
1 -3.75567 15.724 -16.19
1 0.189027 14.4904 -15.6381
2 3.84982 15.261 -15.1606
2 7.41665 15.3892 -15.6895
2 -8.00925 -19.1156 -11.5449
2 -3.94308 -18.968 -11.2165
1 0.391346 -19.4124 -11.6016
2 4.80162 -19.7349 -12.2216
2 7.43592 -18.7458 -11.6058
2 -11.9961 -15.382 -12.0638
2 -7.83407 -15.1488 -11.31
2 -3.80061 -15.0693 -11.2371
3 0.118777 -15.0555 -11.29
2 3.80984 -14.9746 -11.2061
2 7.53815 -15.055 -11.3492
1 11.6392 -15.199 -11.5871
2 -15.8876 -11.8678 -11.7929
2 -11.3678 -11.2642 -11.1832
2 -7.55938 -11.1312 -11.3601
1 -3.8899 -11.3501 -11.3402
3 -0.00293385 -11.2793 -11.2194
1 3.75392 -11.4052 -11.1444
3 7.47572 -11.2529 -11.0782
2 11.2148 -11.2522 -11.1224
2 15.0827 -11.0988 -11.3372
1 -19.1317 -7.99379 -11.5801
2 -15.2439 -7.43352 -11.1607
2 -11.3865 -7.42195 -11.2347
2 -7.5047 -7.50917 -11.1809
1 -3.77273 -7.51288 -11.2894
3 -0.0600735 -7.50983 -11.2229
2 3.72048 -7.526 -11.1983
3 7.48916 -7.45016 -11.1351
2 11.1464 -7.47129 -11.0503
2 15.0518 -7.59397 -11.1385
2 18.5816 -7.53708 -11.4191
1 -19.0058 -3.80504 -11.3886
1 -15.0804 -3.61694 -11.2524
2 -11.3321 -3.78041 -11.2836
3 -7.52627 -3.87271 -11.2478
2 -3.62522 -3.75178 -11.2199
2 0.0510728 -3.89793 -11.1201
2 3.62003 -3.79613 -11.2084
3 7.54176 -3.83198 -11.0582
2 11.1284 -3.80128 -11.0392
2 14.9476 -3.80708 -11.1219
2 18.9394 -3.8314 -11.4863
2 -19.1717 0.0440497 -11.266
1 -15.0634 0.138523 -11.3442
3 -11.1121 0.178205 -11.2581
2 -7.38541 0.151213 -11.1003
3 -3.72931 -0.0920309 -11.1245
3 0.164485 -0.0775843 -11.1849
3 3.79761 -0.0183867 -11.0689
1 7.48406 0.0276378 -11.2461
1 11.3052 0.00708272 -11.2121
1 15.0665 -0.128755 -11.2701
3 18.7134 -0.175136 -11.2669
2 -19.5632 4.10115 -11.9466
2 -15.0102 3.76615 -11.4022
2 -11.1595 3.89031 -11.2702
3 -7.36561 3.82317 -11.1629
3 -3.7251 3.74803 -11.236
2 0.037001 3.7772 -11.1317
3 3.69012 3.65192 -11.3277
3 7.62512 3.75356 -11.223
1 11.2813 3.81497 -11.2015
1 15.1061 3.76357 -11.3529
2 18.9551 3.89039 -11.4847
1 -18.8644 7.94055 -11.6838
3 -14.8563 7.62578 -11.2662
2 -11.1366 7.54889 -11.2143
3 -7.3881 7.5154 -11.0969
3 -3.61389 7.68482 -11.172
1 0.123122 7.49785 -11.3324
1 3.81832 7.5553 -11.3285
2 7.53411 7.47374 -11.2859
1 11.4077 7.41606 -11.4597
2 15.0557 7.42154 -11.3202
2 18.6814 7.64563 -11.4141
3 -15.0494 11.3688 -11.4716
2 -11.1581 11.5554 -11.2126
1 -7.51377 11.3352 -11.247
1 -3.71819 11.1376 -11.1553
2 0.113854 11.204 -11.2803
1 3.87033 11.2852 -11.3981
3 7.63334 11.251 -11.3055
3 11.3553 11.304 -11.3787
1 15.3546 11.5769 -11.7897
2 -11.3484 14.811 -11.4151
2 -7.40257 15.0403 -11.1959
3 -3.63416 14.9 -11.0469
1 0.00563469 15.0428 -11.3108
2 4.00311 15.0262 -11.3136
2 7.54673 15.1617 -11.4194
2 10.7651 15.3575 -11.6426
2 -7.76777 18.614 -11.5685
1 -3.56241 19.1056 -12.1377
2 0.301803 18.6935 -11.6404
2 4.50958 20.0684 -12.0641
2 7.11251 19.0722 -11.9119
1 0.00459092 -22.8371 -7.45054
2 -11.486 -18.6665 -8.06477
3 -7.68072 -18.9207 -7.35803
1 -3.919 -18.8748 -7.43872
1 -0.0958126 -18.7865 -7.43336
2 3.8436 -18.9564 -7.55047
2 7.73754 -18.8778 -7.49638
2 11.3421 -18.6834 -7.74781
1 -15.3236 -15.207 -8.10935
2 -11.4944 -15.2286 -7.55795
2 -7.58164 -15.1684 -7.35416
3 -3.85913 -14.962 -7.51699
1 -0.0037535 -15.1024 -7.58588
3 3.88853 -15.1187 -7.51087
2 7.59369 -15.038 -7.46771
2 11.3066 -15.0647 -7.52375
2 15.1686 -14.9045 -7.83713
2 -18.6129 -11.187 -7.68983
2 -15.0147 -11.1469 -7.41177
2 -11.3818 -11.2359 -7.46325
2 -7.55522 -11.3539 -7.49093
2 -3.70616 -11.1178 -7.43465
2 0.00522957 -11.2828 -7.5162
3 3.77895 -11.2326 -7.51863
3 7.52625 -11.174 -7.37749
3 11.2794 -11.2625 -7.40673
2 15.1243 -11.4753 -7.70873
2 18.9567 -11.1741 -7.59776
1 -19.0552 -7.267 -7.35425
2 -15.2008 -7.40764 -7.45232
2 -11.2325 -7.44984 -7.38686
3 -7.4384 -7.39965 -7.40496
2 -3.67073 -7.49096 -7.38233
1 0.00472432 -7.4053 -7.48727
2 3.77263 -7.50323 -7.35752
3 7.52432 -7.34278 -7.36612
2 11.181 -7.52443 -7.46092
3 15.013 -7.4424 -7.50704
2 18.8914 -7.41274 -7.40709
1 -19.0719 -3.65995 -7.53253
2 -15.1143 -3.55083 -7.54202
1 -11.3086 -3.80804 -7.43078
3 -7.41084 -3.75647 -7.36159
3 -3.64051 -3.69056 -7.44073
3 0.165319 -3.7019 -7.26236
2 3.707 -3.63431 -7.32237
3 7.52507 -3.69044 -7.38983
3 11.1979 -3.84431 -7.41467
1 15.1229 -3.87468 -7.56433
2 18.9735 -3.9098 -7.50487
2 -22.8354 -0.0528315 -7.35574
1 -18.9271 0.0374198 -7.62761
2 -15.062 0.118762 -7.56262
3 -11.2953 0.0238675 -7.40931
3 -7.4251 0.291668 -7.37554
1 -3.6198 -0.038099 -7.32525
3 0.0439519 -0.0560281 -7.39574
3 3.59803 -0.0976463 -7.3875
3 7.42897 0.055376 -7.41456
3 11.2579 -0.119895 -7.36321
3 15.0871 -0.0792454 -7.51409
2 18.7114 0.0271619 -7.46436
2 22.5371 0.162718 -7.70799
1 -19.2526 3.90478 -7.31768
1 -15.0064 3.88538 -7.41799
2 -11.2286 3.76301 -7.35935
3 -7.44602 3.7401 -7.46518
2 -3.56098 3.74065 -7.35429
3 0.0618611 3.70159 -7.32535
2 3.72566 3.63086 -7.48995
2 7.37969 3.68442 -7.3966
2 11.2123 3.71069 -7.39411
2 15.0324 3.73341 -7.49278
2 18.8454 3.79554 -7.50078
2 -19.0697 7.72589 -7.81338
3 -15.1545 7.67511 -7.49888
2 -11.2302 7.53746 -7.49765
2 -7.41644 7.51376 -7.36176
2 -3.59831 7.55159 -7.45481
3 -0.0560672 7.46963 -7.40598
2 3.77325 7.4577 -7.40015
3 7.4239 7.53575 -7.42541
2 11.2496 7.44372 -7.392
1 15.0093 7.60065 -7.57942
2 18.81 7.62027 -7.46341
1 -18.7448 11.5098 -8.18346
2 -15.0489 11.5038 -7.50585
3 -11.2637 11.464 -7.4248
3 -7.44029 11.3907 -7.52174
2 -3.66482 11.1913 -7.41404
1 0.0689006 11.2015 -7.44037
2 3.84596 11.1669 -7.3523
3 7.6208 11.2803 -7.43172
2 11.3521 11.3541 -7.46969
2 15.0105 11.4679 -7.464
2 18.6 11.4512 -7.81804
1 -15.4634 15.3428 -8.24849
2 -11.4522 15.2998 -7.49833
1 -7.47562 15.122 -7.46061
2 -3.67214 15.031 -7.47328
3 0.00457262 15.1451 -7.45149
2 3.86019 14.9648 -7.47742
2 7.60364 15.0808 -7.41973
2 11.3162 15.1207 -7.63255
2 14.8397 15.4045 -8.34563
2 -11.4376 18.801 -7.63116
2 -7.66308 18.9925 -7.43091
2 -3.69844 18.9346 -7.61299
2 0.072463 18.849 -7.37152
2 3.90516 18.8261 -7.5889
2 7.59277 18.9127 -7.61411
1 11.0935 19.2749 -8.17117
1 0.415859 23.5169 -5.3967
2 -3.88953 -22.8327 -3.73746
2 0.144284 -22.6689 -3.82763
1 3.74892 -22.7836 -3.66925
2 -11.5441 -18.926 -3.87138
2 -7.57943 -18.9043 -3.5316
3 -3.68922 -19.0713 -3.75647
2 0.00891385 -18.9378 -3.82353
2 3.81676 -18.9862 -3.7345
2 7.68778 -19.1272 -3.91653
2 11.4131 -19.1314 -4.02208
1 -15.5724 -15.3979 -3.94389
3 -11.1267 -14.9308 -3.5694
1 -7.5142 -15.031 -3.54521
3 -3.72152 -14.9713 -3.53986
2 0.0557988 -15.0701 -3.68182
2 3.77865 -15.0858 -3.84624
3 7.56501 -15.1665 -3.65703
2 11.4206 -15.0992 -3.69493
2 15.2944 -15.4539 -3.82213
2 -18.8468 -11.2472 -4.01402
2 -15.1678 -11.1876 -3.85515
2 -11.1912 -11.2685 -3.60727
3 -7.52631 -11.2954 -3.82123
2 -3.82687 -11.1558 -3.61998
1 0.101357 -11.1864 -3.68398
2 3.70608 -11.1603 -3.73437
3 7.51019 -11.1554 -3.70252
2 11.1883 -11.211 -3.68727
2 15.2111 -11.3197 -3.70336
2 19.06 -11.4704 -4.01016
2 -18.8664 -7.51206 -3.71312
2 -15.0986 -7.38753 -3.72068
3 -11.1634 -7.39238 -3.66172
2 -7.41824 -7.26306 -3.56122
1 -3.73835 -7.3279 -3.76919
3 0.0606227 -7.41157 -3.62688
1 3.72652 -7.4523 -3.67855
3 7.49713 -7.4033 -3.69314
3 11.1772 -7.53447 -3.69237
1 14.9757 -7.57516 -3.74392
2 18.8283 -7.44909 -3.71632
2 -22.9915 -3.31612 -3.88218
1 -18.8177 -3.57461 -3.70558
3 -15.0054 -3.67422 -3.71722
2 -11.1135 -3.62823 -3.6233
2 -7.39979 -3.61814 -3.69918
3 -3.71462 -3.51099 -3.59173
3 -0.0472843 -3.6037 -3.71141
3 3.66185 -3.79026 -3.69122
3 7.46857 -3.60239 -3.66476
2 11.1605 -3.6721 -3.68252
3 14.9476 -3.79781 -3.8346
1 18.7735 -3.81019 -3.83
2 22.5035 -3.81208 -3.74238
2 -23.0953 1.15414 -3.26384
1 -18.9888 0.0620607 -3.74515
3 -15.0391 -0.0636129 -3.79834
3 -11.2294 0.0842133 -3.69216
3 -7.26287 0.188468 -3.69403
3 -3.65743 -0.0486264 -3.61679
3 -0.0507017 0.0894776 -3.51037
1 3.59532 0.0115637 -3.63894
3 7.36888 -0.0347057 -3.59726
1 11.1734 0.0158454 -3.63408
2 15.0667 -0.0250019 -3.72268
3 18.6804 0.044028 -3.79873
1 23.1191 -0.527266 -3.03952
1 -22.3277 4.15449 -4.56279
1 -18.7901 3.97367 -3.81372
2 -15.1072 3.82804 -3.78418
2 -11.1346 3.86275 -3.8057
1 -7.34585 3.70152 -3.71684
3 -3.60952 3.71869 -3.6752
3 0.015767 3.77188 -3.55427
1 3.72423 3.6192 -3.59682
1 7.42105 3.70334 -3.5503
3 11.2753 3.65081 -3.67947
1 14.9938 3.81785 -3.70124
3 18.9459 3.76281 -3.87632
2 22.5605 3.72924 -3.97129
2 -18.8778 7.64094 -3.63104
1 -15.0322 7.63026 -3.77405
3 -11.1788 7.56473 -3.64557
2 -7.45661 7.55951 -3.71114
3 -3.71826 7.5291 -3.59875
1 0.0242716 7.53782 -3.72797
1 3.6708 7.44473 -3.65899
2 7.45078 7.41378 -3.58671
2 11.1947 7.5462 -3.63011
1 15.0066 7.57857 -3.80132
1 19.1018 7.60319 -4.03108
1 -18.9441 11.9299 -3.81347
3 -15.0796 11.3694 -3.67784
1 -11.3052 11.4695 -3.67743
2 -7.49915 11.403 -3.83927
3 -3.70251 11.2397 -3.71161
2 0.0527888 11.2026 -3.65113
3 3.82099 11.1862 -3.64008
2 7.47408 11.2294 -3.65826
1 11.3771 11.3189 -3.66448
1 14.9728 11.3653 -3.78528
1 19.1011 11.8525 -4.43729
1 -15.5014 15.5275 -3.77684
1 -11.3686 15.0246 -3.65337
3 -7.41368 15.1165 -3.77726
3 -3.65724 15.0298 -3.69407
1 0.0662076 15.0525 -3.6718
3 3.8136 15.1033 -3.67597
2 7.56005 15.1435 -3.71407
3 11.351 15.0614 -3.80587
1 15.3514 15.9046 -4.04236
2 -11.6395 19.1385 -3.85058
2 -7.62233 18.9741 -3.66837
2 -3.73373 18.7492 -3.85418
1 0.0109776 18.9268 -3.84233
3 3.84502 18.9951 -3.65778
3 7.75844 19.0297 -3.61887
2 11.2051 19.2266 -3.92761
1 -4.86608 22.2627 -3.8905
2 -0.606172 23.2217 -3.00158
2 4.08542 22.6911 -3.4835
2 -7.55857 -22.677 0.125165
2 -3.77312 -23.0178 0.0274372
2 -0.0295613 -22.8821 0.0246762
2 3.55253 -23.0095 0.115242
1 7.65211 -22.7695 -0.109284
2 -11.3787 -18.7927 0.094766
2 -7.53297 -18.8203 0.0484571
2 -3.77332 -18.9507 0.089042
2 -0.0199093 -18.9693 0.0155044
1 3.83847 -19.0454 0.0204599
1 7.65067 -19.0436 0.0281664
2 11.7667 -19.5384 -0.378557
1 -15.1172 -14.9903 0.0773313
2 -11.4055 -15.0872 0.101503
2 -7.44302 -14.912 0.100791
3 -3.82195 -15.055 0.197135
3 0.0128958 -15.0841 0.0880974
3 3.69604 -15.0919 0.0292586
3 7.66716 -15.0957 0.0163227
2 11.284 -15.0327 0.0401184
2 15.0994 -15.2521 0.0627284
2 -19.1696 -11.4043 0.177427
2 -15.2031 -11.3802 0.0420963
1 -11.1832 -11.2527 0.0849953
2 -7.41512 -11.1864 0.0827161
3 -3.69936 -11.1682 0.000236964
1 -0.00772833 -11.1027 -0.0135292
1 3.77821 -11.2154 -0.0172316
3 7.59539 -11.2125 0.0265842
3 11.2293 -11.1567 -0.0538973
1 15.223 -11.4812 -0.161187
2 19.1899 -12.0159 0.102608
1 -22.6856 -7.49726 0.29347
3 -18.8823 -7.50616 0.0394428
2 -14.9117 -7.4067 0.0514086
3 -11.2276 -7.4718 -0.00895903
2 -7.4345 -7.47442 -0.126237
3 -3.57608 -7.26429 0.109757
3 -0.136105 -7.27839 -0.0456532
2 3.74803 -7.32035 -0.00520858
1 7.59281 -7.25799 -0.118164
2 11.2342 -7.42641 -0.0328175
3 14.9382 -7.51206 0.0139038
2 18.8039 -7.60859 0.108034
1 22.4734 -7.55734 0.132063
1 -23.2782 -3.21067 -0.323625
1 -19.1119 -3.69713 0.0330207
1 -14.8947 -3.75077 -0.0194034
2 -11.1134 -3.71792 0.0579222
3 -7.40503 -3.74662 -0.0315305
3 -3.64038 -3.63136 -0.0854594
3 0.0172517 -3.67503 -0.0492274
1 3.69415 -3.73746 0.0464544
3 7.48116 -3.6988 -0.0840244
3 11.1478 -3.63782 -0.0166772
3 14.9768 -3.73967 -0.114119
1 18.7735 -3.70336 -0.0113397
1 22.9165 -3.87576 0.770942
2 -23.1091 1.23347 -0.655997
2 -18.8539 0.155494 -0.0385592
1 -14.8701 0.175312 0.0498933
3 -11.1714 -0.00201508 -0.013255
3 -7.34649 0.064767 0.0266091
3 -3.67837 0.198934 0.0742917
3 -0.0764957 0.0415356 -0.127014
3 3.73153 -0.0263238 0.0277094
3 7.48133 0.0694362 0.0518498
3 11.1291 0.0012931 -0.0786188
3 14.9614 0.0247383 0.0185333
3 18.7889 0.0583738 0.0184844
1 23.0968 -0.123422 -0.517683
2 -22.9119 3.77293 0.405301
2 -18.7222 3.89374 -0.0276831
3 -15.0607 3.77936 0.0800739
3 -11.3174 3.74652 -0.0819221
1 -7.39287 3.76483 0.0867602
3 -3.71876 3.71917 0.0233377
3 0.022437 3.71194 0.115345
3 3.69304 3.80675 0.0826091
3 7.34212 3.77242 0.147104
3 11.2621 3.89808 -0.0672407
1 14.913 3.85589 -0.0388458
3 18.8864 3.80608 0.112982
2 22.8856 3.51071 -0.273097
2 -22.9203 8.06886 -0.0958247
2 -18.6654 7.48845 -0.157319
2 -14.9901 7.71558 0.159108
2 -11.2972 7.48568 0.044607
2 -7.31929 7.45347 0.056933
1 -3.61394 7.40804 -0.00190466
3 -0.0175663 7.39236 0.100191
2 3.6343 7.37227 0.109472
3 7.54967 7.5031 0.167428
1 11.2598 7.42731 0.0318611
3 15.0559 7.59621 0.0332005
2 18.7984 7.47569 -0.0833058
2 22.6648 7.3196 -0.525699
2 -18.9684 11.6281 0.170344
2 -14.9946 11.3038 0.243589
3 -11.3116 11.3048 0.0962133
3 -7.45994 11.1661 0.0143395
3 -3.64714 11.2036 0.0913853
3 0.0611095 11.1869 0.0352911
2 3.84507 11.1879 0.00634667
3 7.52459 11.3377 0.0216349
3 11.5314 11.4045 0.0559085
1 15.1534 11.3427 -0.0928911
2 19.2114 11.5723 -0.357826
2 -15.0793 15.1593 0.251118
1 -11.3653 15.0466 0.0824421
2 -7.58865 14.9958 0.0126798
2 -3.78015 14.9998 0.141854
2 -0.058385 15.1469 0.0406845
1 3.88011 15.1615 0.103619
3 7.56643 15.3355 -0.031494
1 11.4793 15.1835 0.0156676
2 15.1738 15.4315 0.0241707
3 -11.2673 18.791 0.357591
2 -7.33388 18.7948 0.18939
2 -3.8415 18.7818 0.00520407
2 0.216084 18.8909 0.0219601
2 3.82973 18.8957 0.088832
2 7.61631 19.1182 0.0545507
2 11.3229 19.4513 0.112376
2 -7.64957 22.5498 0.452284
2 -3.99114 22.848 0.644728
1 -1.25336 23.4608 -0.60827
2 3.65799 22.9311 0.0778971
2 6.99828 23.2181 0.743275
2 -3.61165 -22.8898 3.96295
1 -0.10364 -23.3652 3.70286
2 3.94659 -22.9357 3.84466
2 -11.503 -19.0587 4.06221
1 -7.51069 -18.9874 3.84936
3 -3.77454 -19.0165 3.81924
1 0.0906237 -18.8378 3.71275
3 3.86237 -18.8215 3.60069
2 7.44147 -19.0689 3.8368
1 11.6704 -19.1994 3.91461
2 -15.182 -15.3303 3.94554
3 -11.287 -15.0402 3.77654
3 -7.4721 -14.9862 3.61899
1 -3.66265 -15.0642 3.5869
3 0.0286079 -14.9896 3.68548
2 3.68862 -14.9819 3.69664
3 7.48295 -15.1373 3.68129
2 11.1874 -15.0093 3.61805
1 15.4575 -15.7036 3.86184
2 -19.2031 -11.572 4.04172
3 -15.0577 -11.2928 3.82377
1 -11.3095 -11.2201 3.75768
3 -7.48687 -11.1386 3.79492
3 -3.73896 -11.0796 3.80466
1 -0.0144997 -11.1568 3.61301
3 3.77351 -11.1444 3.67237
2 7.55122 -11.2465 3.59448
3 11.1602 -11.2749 3.7612
2 15.1972 -11.5128 3.69146
3 18.6486 -11.4116 3.76301
1 -19.0434 -7.68979 4.01987
2 -14.8106 -7.3976 3.71955
3 -11.2095 -7.48933 3.7725
3 -7.19958 -7.34873 3.56855
1 -3.72869 -7.35699 3.6807
2 -0.0915992 -7.34875 3.64781
1 3.71745 -7.4355 3.62288
1 7.47524 -7.39156 3.57424
3 11.2364 -7.44764 3.67064
3 14.9797 -7.67363 3.68109
2 18.7664 -7.49333 3.76545
1 -21.9534 -3.94802 4.20399
1 -18.942 -3.66842 3.60927
3 -15.0235 -3.75619 3.76882
2 -11.1675 -3.66513 3.78352
2 -7.46501 -3.69913 3.67837
3 -3.65318 -3.62019 3.65424
3 0.0324483 -3.72578 3.505
3 3.69992 -3.72179 3.6969
3 7.47641 -3.67876 3.6213
3 11.1141 -3.69858 3.65384
2 14.8438 -3.66652 3.59674
1 18.5388 -3.66984 3.60768
2 22.5421 -3.96376 3.69823
1 -23.1495 -1.90988 2.97801
2 -18.7214 0.116266 3.55142
2 -14.9386 0.186949 3.7134
1 -11.2681 0.00950391 3.80529
3 -7.41004 -0.0104087 3.62744
2 -3.6876 0.0548317 3.69804
3 0.0867422 -0.0346314 3.80362
1 3.68103 0.0493727 3.67697
2 7.4178 -0.12778 3.61931
3 11.2177 -0.101357 3.69784
1 14.9162 0.0467815 3.68598
1 18.6472 -0.134899 3.73084
1 23.0998 0.122049 3.89712
1 -22.9028 3.16376 4.31416
3 -18.8524 3.73437 3.5295
3 -14.9237 3.81247 3.77678
3 -11.2224 3.77553 3.55058
3 -7.38697 3.79379 3.88375
3 -3.57105 3.68984 3.78289
3 0.0268335 3.75244 3.7342
3 3.67055 3.73615 3.71426
3 7.27989 3.71861 3.64041
3 11.1653 3.77137 3.6464
3 14.956 3.65022 3.69101
2 18.8856 3.67045 3.73777
2 22.8592 3.73014 3.67876
2 -18.9166 7.73003 3.9299
2 -14.9624 7.62772 3.88569
3 -11.3149 7.48871 3.77011
3 -7.44323 7.5246 3.75747
3 -3.72438 7.41669 3.78006
2 0.0787042 7.30484 3.76748
3 3.88582 7.4236 3.83491
1 7.42329 7.53718 3.68719
3 11.1437 7.50909 3.58191
1 14.9406 7.59183 3.73631
1 18.9179 7.6421 3.71007
1 -19.3295 11.4328 4.13729
2 -15.1341 11.2737 3.89567
3 -11.3049 11.2391 3.77701
1 -7.52566 11.2041 3.77035
3 -3.66016 11.1609 3.79632
2 0.0610039 11.1928 3.73291
2 3.73855 11.115 3.80877
3 7.59299 11.3055 3.76714
2 11.2689 11.2675 3.78042
1 15.1148 11.3809 3.7884
2 19.2667 11.7952 3.8143
2 -15.6069 15.3 3.94259
2 -11.3094 15.0389 3.93045
2 -7.47284 14.9802 3.81178
3 -3.65384 15.158 3.79346
2 -0.0959982 15.1492 3.72688
2 3.81614 15.1555 3.85947
3 7.57958 15.1812 3.87743
2 11.4634 15.1476 3.83271
2 15.221 15.1233 3.95011
2 -11.725 19.174 4.47036
2 -7.76306 18.7659 4.13476
2 -3.86373 18.956 3.87295
2 0.0597515 18.9495 3.77592
2 3.77341 18.9054 3.88844
2 7.44638 19.0041 3.99113
1 11.6567 19.5332 4.29761
1 -4.04104 22.516 3.80251
1 1.0627 23.0463 3.04183
2 3.52107 22.9433 4.02339
1 -0.0166284 -22.4381 7.3337
1 -11.6313 -19.1169 7.99898
2 -7.51619 -18.675 7.50009
3 -3.9127 -18.9026 7.61907
1 0.129968 -18.8347 7.41394
1 3.69914 -18.8458 7.45345
2 7.24549 -18.9901 7.29695
1 11.6847 -19.1376 8.23539
1 -15.3854 -15.3269 8.19065
1 -11.3651 -14.9215 7.44469
3 -7.6279 -15.117 7.4122
3 -3.72236 -14.9342 7.32416
2 0.0434505 -15.0482 7.28378
3 3.82355 -15.002 7.39392
1 7.64615 -15.1447 7.48278
2 11.3203 -15.2391 7.43137
1 15.1147 -15.2618 7.92642
1 -19.2281 -11.7436 7.92048
1 -15.0313 -11.2513 7.43564
3 -11.2765 -11.2282 7.41112
3 -7.4123 -11.1424 7.41522
1 -3.64278 -11.2243 7.36976
2 -0.0274337 -11.2014 7.40113
2 3.77122 -11.2314 7.47669
1 7.5707 -11.3295 7.46972
3 11.3154 -11.2806 7.46877
2 14.9969 -11.3521 7.57631
2 18.8681 -11.4539 7.68835
2 -18.7153 -7.52071 7.14651
1 -15.0453 -7.39075 7.56071
3 -11.1889 -7.37758 7.52871
3 -7.43076 -7.49285 7.46968
3 -3.57048 -7.36649 7.39943
1 -0.012752 -7.4502 7.33772
2 3.69135 -7.35539 7.3338
1 7.54319 -7.36546 7.4703
2 11.2033 -7.49278 7.45656
3 15.0071 -7.51443 7.50404
3 18.8212 -7.52909 7.22487
2 -18.8284 -3.60269 7.38852
1 -15.0536 -3.71586 7.46653
3 -11.3066 -3.83869 7.48643
3 -7.51686 -3.70295 7.56877
3 -3.78227 -3.74588 7.44969
3 -0.0502655 -3.7762 7.50622
3 3.72212 -3.63458 7.39614
1 7.48552 -3.69998 7.36735
3 11.1455 -3.80228 7.4896
3 14.9231 -3.71129 7.40155
3 18.8974 -3.77636 7.49433
2 -22.6316 -0.0634249 7.16746
1 -18.6701 -0.0311898 7.37622
1 -14.9931 -0.078882 7.36493
2 -11.2624 0.0623066 7.46541
2 -7.4691 0.0339471 7.35563
1 -3.64018 -0.0742564 7.41348
3 0.0173773 -0.0435212 7.3662
3 3.70274 0.0401139 7.33817
2 7.43732 -0.0903032 7.30923
2 11.257 0.0516326 7.39308
1 14.9517 0.095539 7.44841
1 18.9229 -0.0584538 7.50872
1 22.6487 -0.129842 7.42032
2 -18.8827 3.72957 7.35367
2 -15.0801 3.80772 7.65909
1 -11.3388 3.6566 7.55677
1 -7.45412 3.71901 7.48994
3 -3.62678 3.62816 7.33614
3 -0.115529 3.7809 7.45297
2 3.72539 3.73939 7.30884
2 7.42032 3.77346 7.38781
1 11.0009 3.74406 7.38879
1 15.0051 3.84185 7.25828
1 18.9664 3.79724 7.48754
1 -18.9483 7.02958 7.73615
2 -15.156 7.49114 7.65547
2 -11.2306 7.65351 7.60411
2 -7.60781 7.48533 7.53385
3 -3.73728 7.47586 7.4076
2 -0.00157845 7.48843 7.34633
3 3.67907 7.44832 7.34064
3 7.53852 7.5561 7.51359
3 11.1771 7.51635 7.51329
1 14.9634 7.64778 7.49525
2 18.8309 7.34307 7.5369
1 -19.0376 11.4446 7.93023
2 -15.2803 11.1969 7.79729
1 -11.2715 11.2326 7.57085
1 -7.39343 11.2138 7.69355
3 -3.71622 11.2406 7.48058
3 -0.00210669 11.2064 7.44582
2 3.76782 11.3139 7.47733
1 7.60805 11.3221 7.54367
1 11.254 11.3081 7.54507
2 14.9252 11.1782 7.55313
2 18.6556 11.5898 7.46587
1 -15.5361 15.1593 8.21129
2 -11.4506 15.1343 7.66727
1 -7.51373 14.8481 7.81847
1 -3.73372 15.107 7.59271
3 0.0756213 15.1729 7.53695
1 3.77809 15.0017 7.53908
2 7.65589 15.2085 7.52776
1 11.4381 15.14 7.65741
2 15.1827 15.234 7.65368
1 -11.912 18.9335 8.11812
3 -7.62832 18.6564 7.56319
3 -3.81304 18.9097 7.67758
1 0.0395601 18.8592 7.72534
2 3.77532 19.0581 7.58976
2 7.74507 19.0298 7.66993
2 11.474 18.9517 7.61966
2 -0.254839 22.5786 7.57704
2 -7.8052 -19.073 11.263
1 -4.06326 -19.2618 11.4828
2 -0.087172 -18.859 11.1149
1 3.99478 -19.1708 11.5514
2 7.8447 -18.856 11.4926
3 -11.3077 -15.0519 11.1533
1 -7.43273 -15.1394 11.4074
3 -3.75176 -14.9239 11.0082
3 0.0777745 -14.9323 11.2263
2 3.83676 -15.0526 11.3641
2 7.54912 -15.1958 11.2464
2 11.3033 -15.0312 11.4504
1 -15.2036 -11.6173 11.5706
2 -11.3702 -11.1913 11.2793
1 -7.59765 -11.2954 11.1512
1 -3.75467 -11.2323 11.22
2 0.0637242 -11.2691 11.2871
2 3.80325 -11.2961 11.2964
2 7.60179 -11.3438 11.2406
2 11.3194 -11.1984 11.0596
3 14.9776 -11.3934 11.1717
2 -18.6687 -8.00671 11.3794
2 -15.0874 -7.46548 11.2275
1 -11.3305 -7.4187 11.3139
2 -7.49136 -7.45939 11.3349
3 -3.59086 -7.45974 11.1549
1 0.0344503 -7.50859 11.2148
2 3.80821 -7.46989 11.2665
3 7.69447 -7.37809 11.284
2 11.2306 -7.49071 11.1278
3 15.1153 -7.51417 11.273
2 18.54 -7.6588 11.3738
3 -18.7719 -3.7701 11.3853
2 -15.1859 -3.67599 11.389
3 -11.3336 -3.77143 11.3251
1 -7.33054 -3.86578 11.2271
3 -3.75248 -3.7488 11.1943
3 0.0499637 -3.79844 11.1899
1 3.82537 -3.71361 11.2305
1 7.4611 -3.67151 11.2163
3 11.0952 -3.79538 11.3044
2 14.9565 -3.73615 11.1626
1 19.0285 -3.89671 11.5775
1 -19.3205 -0.0356537 11.4813
3 -15.2096 0.0643863 11.3267
2 -11.2202 -0.0659576 11.1723
1 -7.44883 -0.141146 11.1599
3 -3.65878 -0.0586421 11.1456
3 0.0139043 -0.0443709 11.1621
2 3.69657 -0.0586216 11.1817
1 7.41669 -0.0892226 11.226
2 11.2973 0.000230614 11.2597
2 14.809 0.0962215 11.2465
1 18.9516 0.0543341 11.6552
2 -19.2979 4.27131 11.4917
2 -15.1313 3.85899 11.3087
3 -11.379 3.65046 11.3095
2 -7.42285 3.63511 11.2198
3 -3.81549 3.71079 11.2505
2 0.0702057 3.686 11.0859
3 3.69745 3.67775 11.157
3 7.43714 3.72671 11.1714
1 11.2 3.7007 11.1964
2 15.0473 3.80255 11.1896
1 19.2607 4.08969 11.8483
2 -19.0615 7.83056 11.5
1 -15.1043 7.44473 11.5039
3 -11.2529 7.54279 11.4714
2 -7.41593 7.53918 11.2664
2 -3.66052 7.45398 11.0881
1 0.00437226 7.42053 11.1728
3 3.71089 7.48983 11.2605
3 7.47393 7.38813 11.3194
3 11.144 7.46973 11.3128
3 15.1879 7.72528 11.5248
1 18.8365 7.96576 11.2139
1 -15.2638 11.4139 11.4143
2 -11.3497 11.2342 11.3793
3 -7.41628 11.1916 11.3363
2 -3.68577 11.2144 11.2518
3 0.00475221 11.3452 11.2009
3 3.7942 11.2227 11.308
1 7.4935 11.2916 11.3217
1 11.2747 11.2618 11.3953
2 15.1788 11.5993 11.4695
3 -11.4568 14.8955 11.4286
2 -7.42294 14.9388 11.2999
3 -3.75161 15.0756 11.3087
2 0.00874737 14.9417 11.3605
1 3.73436 15.1702 11.2981
1 7.33969 15.1679 11.5593
1 11.4593 15.4218 11.393
2 -8.02957 18.534 11.3633
1 -4.19907 19.0652 11.718
2 0.0469122 18.9239 11.3133
2 3.78992 18.9729 11.5358
2 7.59177 19.1133 11.5725
2 -8.37549 -16.0004 15.4254
1 -3.76728 -15.4518 15.3363
1 -0.162336 -14.9661 14.9956
2 3.78303 -14.9868 15.1793
2 8.09767 -15.2638 15.166
2 -11.321 -11.602 14.9233
2 -7.51196 -11.2218 15.0457
3 -3.6462 -11.3215 14.8664
1 -0.11791 -11.4024 15.0827
3 3.74726 -11.3023 15.1118
1 7.79565 -11.3205 14.9196
2 12.222 -12.0132 15.4965
1 -15.1449 -7.88705 15.4253
2 -11.3623 -7.46915 14.9968
2 -7.54201 -7.51308 14.9179
1 -3.73348 -7.56356 14.9971
3 -0.00872194 -7.54796 15.0459
3 3.87269 -7.5134 15.066
2 7.65015 -7.51334 15.0298
1 11.3942 -7.52642 14.9265
2 15.1401 -8.23329 15.3668
3 -15.3686 -3.76793 15.1873
2 -11.2583 -3.74362 15.0736
3 -7.50479 -3.87089 14.9547
3 -3.78548 -3.84322 15.1301
3 0.154348 -3.68904 15.0076
3 3.85492 -3.74639 15.1162
2 7.73589 -3.77767 14.9617
2 11.2656 -3.81207 14.8561
2 15.4115 -3.91294 15.3005
1 -15.1546 -0.115895 15.1305
2 -11.2936 -0.06019 15.092
2 -7.48018 -0.112703 14.9084
3 -3.78043 -0.0425048 14.8908
1 0.0237255 -0.121668 14.913
3 3.72205 -0.0125605 15.0086
1 7.52007 -0.0650213 15.0159
2 11.2739 -0.024484 15.0402
1 15.0433 0.0216017 15.0991
2 -15.2713 3.91039 15.1346
1 -11.176 3.81152 15.0644
3 -7.41519 3.6265 15.0626
1 -3.69273 3.66844 14.9968
3 -0.142407 3.71551 15.067
2 3.70344 3.57528 15.0124
1 7.48969 3.61639 15.0885
2 11.2315 3.7053 15.0391
1 15.3535 3.87322 15.3839
1 -15.2787 7.85112 15.4161
2 -11.0692 7.39807 15.189
2 -7.49244 7.5893 15.2047
2 -3.65563 7.46772 15.1946
1 0.0221097 7.47092 14.9611
2 3.72625 7.47716 15.1405
2 7.42263 7.50095 15.3343
3 11.2462 7.50913 15.1854
2 15.3533 8.21373 15.5479
1 -11.7205 11.5695 15.4052
2 -7.25274 11.3111 15.1972
2 -3.70475 11.0951 15.0253
2 0.00188216 11.1539 15.0046
3 3.7473 11.1362 15.0474
1 7.45575 11.4184 15.3392
1 11.7959 11.5126 15.5436
2 -8.18743 15.288 15.3868
2 -4.02004 15.1833 15.4992
2 0.00665012 14.9803 15.083
2 3.76462 15.0267 15.3964
2 8.25855 15.4128 15.4064
1 -7.99725 -11.8568 18.7948
1 -4.06394 -11.8075 18.7749
1 -0.144602 -12.0849 19.8649
2 3.99336 -11.5143 19.0892
2 7.86374 -11.6379 18.8407
2 -11.2769 -7.92127 18.7071
2 -7.53717 -7.59755 18.8072
1 -3.72424 -7.65865 18.8132
2 -0.00141657 -7.58929 18.8603
2 3.75092 -7.55352 18.8987
1 7.77436 -7.57473 18.7858
2 11.5858 -8.05145 18.8701
1 -11.752 -4.04768 19.1886
3 -7.51928 -4.09038 18.8519
2 -3.72181 -3.84591 18.7741
3 0.059936 -3.78949 18.8233
2 3.75809 -3.6279 18.9153
2 7.59438 -3.76518 18.7942
2 12.0479 -4.24186 19.9473
1 -12.1146 -0.038874 20.2596
3 -7.65538 -0.106393 18.8995
1 -3.8766 -0.0690476 18.971
1 -0.00516278 -0.118407 18.8336
2 3.84588 -0.170918 18.8252
1 7.75013 -0.110086 18.9527
2 11.428 0.0767362 19.1604
2 -11.2863 3.98072 19.0512
3 -7.5307 3.66119 19.1514
2 -3.65103 3.71938 18.9508
2 0.00178812 3.50622 18.901
2 3.78259 3.75764 19.0262
2 7.44182 3.79238 19.0632
3 11.4772 3.72469 18.9548
2 -11.2481 7.61331 19.0613
1 -7.3447 7.69743 19.0575
1 -3.92153 7.54727 19.0433
3 -0.0600602 7.47625 18.9236
2 3.54909 7.24405 18.8455
1 7.41434 7.5314 19.1324
2 11.6749 8.07479 19.0983
2 -8.49743 12.116 19.2717
2 -3.97402 11.6521 19.2309
2 0.158849 11.1513 18.9538
2 4.2177 11.889 19.3663
2 8.30443 12.0659 19.1821
1 0.050673 -7.50636 22.4916
2 -3.8428 -3.89433 22.6902
2 -0.023067 -3.8573 22.7798
1 4.00762 -3.80705 22.6426
2 -7.67946 -0.304266 22.5877
2 -3.61852 -0.243848 23.3334
2 -0.282759 0.123253 22.7848
2 3.63901 -0.0017553 22.916
3 7.46349 -0.0264038 22.7772
2 -4.11177 3.78899 22.6859
1 -0.0862472 3.54256 22.8105
2 3.89456 3.61562 22.5625
1 -0.0170671 7.29446 22.7329
2 -5.44971 -5.50065 -22.7209
2 -1.80629 -5.63574 -22.8458
2 2.07432 -6.16123 -22.7208
2 5.69524 -6.13405 -22.5888
2 -5.81873 -2.0231 -22.4432
2 -1.19474 -2.47086 -22.9502
2 2.27858 -2.48989 -22.9078
2 5.46475 -2.30629 -22.5248
1 -6.33292 1.91501 -22.1518
3 -1.44589 1.2818 -22.6887
1 2.06949 1.56094 -22.8051
2 5.64962 1.77457 -22.7916
1 -5.19718 5.82699 -22.2883
1 -1.47783 5.34787 -22.9278
2 1.92654 5.4578 -22.5898
1 5.6493 5.58983 -22.7187
2 -6.05291 -13.5232 -18.8323
1 -1.81696 -13.2092 -18.5922
1 1.96069 -13.1263 -18.6799
1 5.97164 -13.041 -19.0189
2 -9.70332 -9.60551 -18.926
2 -5.63374 -9.56019 -18.6877
1 -1.92357 -9.64974 -18.7681
3 1.9437 -9.54067 -18.7363
1 5.86051 -9.83284 -19.0777
3 9.39211 -9.33947 -18.66
1 -13.2673 -6.20349 -18.744
2 -9.58876 -5.68762 -18.6833
2 -5.82645 -5.60578 -19.0418
1 -2.00125 -5.72415 -18.7654
3 1.92381 -5.874 -18.9416
1 5.62213 -5.87458 -18.7943
2 9.66456 -5.72981 -18.9037
1 13.2039 -6.28363 -18.5675