LAMMPS DATA FOR MEAM SIMULATION

   4321   atoms
      3   atom types

  -33.55   33.55   xlo xhi
  -33.55   33.55   ylo yhi
  -33.55   33.55   zlo zhi

 Atoms

     1   2     0.00000    -7.84889   -23.54666
     2   2    -3.92444    -3.92444   -23.54666
     3   1     0.00000    -3.92444   -23.54666
     4   1     3.92444    -3.92444   -23.54666
     5   2    -7.84889     0.00000   -23.54666
     6   2    -3.92444     0.00000   -23.54666
     7   1     0.00000     0.00000   -23.54666
     8   2     3.92444     0.00000   -23.54666
     9   1     7.84889     0.00000   -23.54666
    10   2    -3.92444     3.92444   -23.54666
    11   1     0.00000     3.92444   -23.54666
    12   2     3.92444     3.92444   -23.54666
    13   2     0.00000     7.84889   -23.54666
    14   2    -7.84889   -11.77333   -19.62221
    15   1    -3.92444   -11.77333   -19.62221
    16   2     0.00000   -11.77333   -19.62221
    17   2     3.92444   -11.77333   -19.62221
    18   2     7.84889   -11.77333   -19.62221
    19   2   -11.77333    -7.84889   -19.62221
    20   2    -7.84889    -7.84889   -19.62221
    21   1    -3.92444    -7.84889   -19.62221
    22   1     0.00000    -7.84889   -19.62221
    23   1     3.92444    -7.84889   -19.62221
    24   1     7.84889    -7.84889   -19.62221
    25   1    11.77333    -7.84889   -19.62221
    26   2   -11.77333    -3.92444   -19.62221
    27   2    -7.84889    -3.92444   -19.62221
    28   3    -3.92444    -3.92444   -19.62221
    29   1     0.00000    -3.92444   -19.62221
    30   2     3.92444    -3.92444   -19.62221
    31   2     7.84889    -3.92444   -19.62221
    32   2    11.77333    -3.92444   -19.62221
    33   2   -11.77333     0.00000   -19.62221
    34   2    -7.84889     0.00000   -19.62221
    35   1    -3.92444     0.00000   -19.62221
    36   2     0.00000     0.00000   -19.62221
    37   3     3.92444     0.00000   -19.62221
    38   1     7.84889     0.00000   -19.62221
    39   3    11.77333     0.00000   -19.62221
    40   2   -11.77333     3.92444   -19.62221
    41   2    -7.84889     3.92444   -19.62221
    42   3    -3.92444     3.92444   -19.62221
    43   1     0.00000     3.92444   -19.62221
    44   2     3.92444     3.92444   -19.62221
    45   3     7.84889     3.92444   -19.62221
    46   2    11.77333     3.92444   -19.62221
    47   2   -11.77333     7.84889   -19.62221
    48   2    -7.84889     7.84889   -19.62221
    49   1    -3.92444     7.84889   -19.62221
    50   2     0.00000     7.84889   -19.62221
    51   3     3.92444     7.84889   -19.62221
    52   2     7.84889     7.84889   -19.62221
    53   2    11.77333     7.84889   -19.62221
    54   2    -7.84889    11.77333   -19.62221
    55   2    -3.92444    11.77333   -19.62221
    56   2     0.00000    11.77333   -19.62221
    57   2     3.92444    11.77333   -19.62221
    58   1     7.84889    11.77333   -19.62221
    59   1    -7.84889   -15.69777   -15.69777
    60   2    -3.92444   -15.69777   -15.69777
    61   2     0.00000   -15.69777   -15.69777
    62   1     3.92444   -15.69777   -15.69777
    63   1     7.84889   -15.69777   -15.69777
    64   1   -11.77333   -11.77333   -15.69777
    65   1    -7.84889   -11.77333   -15.69777
    66   3    -3.92444   -11.77333   -15.69777
    67   2     0.00000   -11.77333   -15.69777
    68   1     3.92444   -11.77333   -15.69777
    69   3     7.84889   -11.77333   -15.69777
    70   1    11.77333   -11.77333   -15.69777
    71   1   -15.69777    -7.84889   -15.69777
    72   2   -11.77333    -7.84889   -15.69777
    73   1    -7.84889    -7.84889   -15.69777
    74   3    -3.92444    -7.84889   -15.69777
    75   2     0.00000    -7.84889   -15.69777
    76   1     3.92444    -7.84889   -15.69777
    77   1     7.84889    -7.84889   -15.69777
    78   1    11.77333    -7.84889   -15.69777
    79   2    15.69777    -7.84889   -15.69777
    80   2   -15.69777    -3.92444   -15.69777
    81   2   -11.77333    -3.92444   -15.69777
    82   1    -7.84889    -3.92444   -15.69777
    83   2    -3.92444    -3.92444   -15.69777
    84   3     0.00000    -3.92444   -15.69777
    85   3     3.92444    -3.92444   -15.69777
    86   2     7.84889    -3.92444   -15.69777
    87   2    11.77333    -3.92444   -15.69777
    88   1    15.69777    -3.92444   -15.69777
    89   2   -15.69777     0.00000   -15.69777
    90   2   -11.77333     0.00000   -15.69777
    91   2    -7.84889     0.00000   -15.69777
    92   2    -3.92444     0.00000   -15.69777
    93   1     0.00000     0.00000   -15.69777
    94   3     3.92444     0.00000   -15.69777
    95   2     7.84889     0.00000   -15.69777
    96   2    11.77333     0.00000   -15.69777
    97   2    15.69777     0.00000   -15.69777
    98   2   -15.69777     3.92444   -15.69777
    99   2   -11.77333     3.92444   -15.69777
   100   3    -7.84889     3.92444   -15.69777
   101   1    -3.92444     3.92444   -15.69777
   102   1     0.00000     3.92444   -15.69777
   103   2     3.92444     3.92444   -15.69777
   104   1     7.84889     3.92444   -15.69777
   105   3    11.77333     3.92444   -15.69777
   106   2    15.69777     3.92444   -15.69777
   107   1   -15.69777     7.84889   -15.69777
   108   1   -11.77333     7.84889   -15.69777
   109   2    -7.84889     7.84889   -15.69777
   110   2    -3.92444     7.84889   -15.69777
   111   2     0.00000     7.84889   -15.69777
   112   3     3.92444     7.84889   -15.69777
   113   3     7.84889     7.84889   -15.69777
   114   1    11.77333     7.84889   -15.69777
   115   1    15.69777     7.84889   -15.69777
   116   3   -11.77333    11.77333   -15.69777
   117   2    -7.84889    11.77333   -15.69777
   118   2    -3.92444    11.77333   -15.69777
   119   3     0.00000    11.77333   -15.69777
   120   2     3.92444    11.77333   -15.69777
   121   1     7.84889    11.77333   -15.69777
   122   2    11.77333    11.77333   -15.69777
   123   2    -7.84889    15.69777   -15.69777
   124   1    -3.92444    15.69777   -15.69777
   125   1     0.00000    15.69777   -15.69777
   126   2     3.92444    15.69777   -15.69777
   127   2     7.84889    15.69777   -15.69777
   128   2    -7.84889   -19.62221   -11.77333
   129   2    -3.92444   -19.62221   -11.77333
   130   1     0.00000   -19.62221   -11.77333
   131   2     3.92444   -19.62221   -11.77333
   132   2     7.84889   -19.62221   -11.77333
   133   2   -11.77333   -15.69777   -11.77333
   134   2    -7.84889   -15.69777   -11.77333
   135   2    -3.92444   -15.69777   -11.77333
   136   3     0.00000   -15.69777   -11.77333
   137   2     3.92444   -15.69777   -11.77333
   138   2     7.84889   -15.69777   -11.77333
   139   1    11.77333   -15.69777   -11.77333
   140   2   -15.69777   -11.77333   -11.77333
   141   2   -11.77333   -11.77333   -11.77333
   142   2    -7.84889   -11.77333   -11.77333
   143   1    -3.92444   -11.77333   -11.77333
   144   3     0.00000   -11.77333   -11.77333
   145   1     3.92444   -11.77333   -11.77333
   146   3     7.84889   -11.77333   -11.77333
   147   2    11.77333   -11.77333   -11.77333
   148   2    15.69777   -11.77333   -11.77333
   149   1   -19.62221    -7.84889   -11.77333
   150   2   -15.69777    -7.84889   -11.77333
   151   2   -11.77333    -7.84889   -11.77333
   152   2    -7.84889    -7.84889   -11.77333
   153   1    -3.92444    -7.84889   -11.77333
   154   3     0.00000    -7.84889   -11.77333
   155   2     3.92444    -7.84889   -11.77333
   156   3     7.84889    -7.84889   -11.77333
   157   2    11.77333    -7.84889   -11.77333
   158   2    15.69777    -7.84889   -11.77333
   159   2    19.62221    -7.84889   -11.77333
   160   1   -19.62221    -3.92444   -11.77333
   161   1   -15.69777    -3.92444   -11.77333
   162   2   -11.77333    -3.92444   -11.77333
   163   3    -7.84889    -3.92444   -11.77333
   164   2    -3.92444    -3.92444   -11.77333
   165   2     0.00000    -3.92444   -11.77333
   166   2     3.92444    -3.92444   -11.77333
   167   3     7.84889    -3.92444   -11.77333
   168   2    11.77333    -3.92444   -11.77333
   169   2    15.69777    -3.92444   -11.77333
   170   2    19.62221    -3.92444   -11.77333
   171   2   -19.62221     0.00000   -11.77333
   172   1   -15.69777     0.00000   -11.77333
   173   3   -11.77333     0.00000   -11.77333
   174   2    -7.84889     0.00000   -11.77333
   175   3    -3.92444     0.00000   -11.77333
   176   3     0.00000     0.00000   -11.77333
   177   3     3.92444     0.00000   -11.77333
   178   1     7.84889     0.00000   -11.77333
   179   1    11.77333     0.00000   -11.77333
   180   1    15.69777     0.00000   -11.77333
   181   3    19.62221     0.00000   -11.77333
   182   2   -19.62221     3.92444   -11.77333
   183   2   -15.69777     3.92444   -11.77333
   184   2   -11.77333     3.92444   -11.77333
   185   3    -7.84889     3.92444   -11.77333
   186   3    -3.92444     3.92444   -11.77333
   187   2     0.00000     3.92444   -11.77333
   188   3     3.92444     3.92444   -11.77333
   189   3     7.84889     3.92444   -11.77333
   190   1    11.77333     3.92444   -11.77333
   191   1    15.69777     3.92444   -11.77333
   192   2    19.62221     3.92444   -11.77333
   193   1   -19.62221     7.84889   -11.77333
   194   3   -15.69777     7.84889   -11.77333
   195   2   -11.77333     7.84889   -11.77333
   196   3    -7.84889     7.84889   -11.77333
   197   3    -3.92444     7.84889   -11.77333
   198   1     0.00000     7.84889   -11.77333
   199   1     3.92444     7.84889   -11.77333
   200   2     7.84889     7.84889   -11.77333
   201   1    11.77333     7.84889   -11.77333
   202   2    15.69777     7.84889   -11.77333
   203   2    19.62221     7.84889   -11.77333
   204   3   -15.69777    11.77333   -11.77333
   205   2   -11.77333    11.77333   -11.77333
   206   1    -7.84889    11.77333   -11.77333
   207   1    -3.92444    11.77333   -11.77333
   208   2     0.00000    11.77333   -11.77333
   209   1     3.92444    11.77333   -11.77333
   210   3     7.84889    11.77333   -11.77333
   211   3    11.77333    11.77333   -11.77333
   212   1    15.69777    11.77333   -11.77333
   213   2   -11.77333    15.69777   -11.77333
   214   2    -7.84889    15.69777   -11.77333
   215   3    -3.92444    15.69777   -11.77333
   216   1     0.00000    15.69777   -11.77333
   217   2     3.92444    15.69777   -11.77333
   218   2     7.84889    15.69777   -11.77333
   219   2    11.77333    15.69777   -11.77333
   220   2    -7.84889    19.62221   -11.77333
   221   1    -3.92444    19.62221   -11.77333
   222   2     0.00000    19.62221   -11.77333
   223   2     3.92444    19.62221   -11.77333
   224   2     7.84889    19.62221   -11.77333
   225   1     0.00000   -23.54666    -7.84889
   226   2   -11.77333   -19.62221    -7.84889
   227   3    -7.84889   -19.62221    -7.84889
   228   1    -3.92444   -19.62221    -7.84889
   229   1     0.00000   -19.62221    -7.84889
   230   2     3.92444   -19.62221    -7.84889
   231   2     7.84889   -19.62221    -7.84889
   232   2    11.77333   -19.62221    -7.84889
   233   1   -15.69777   -15.69777    -7.84889
   234   2   -11.77333   -15.69777    -7.84889
   235   2    -7.84889   -15.69777    -7.84889
   236   3    -3.92444   -15.69777    -7.84889
   237   1     0.00000   -15.69777    -7.84889
   238   3     3.92444   -15.69777    -7.84889
   239   2     7.84889   -15.69777    -7.84889
   240   2    11.77333   -15.69777    -7.84889
   241   2    15.69777   -15.69777    -7.84889
   242   2   -19.62221   -11.77333    -7.84889
   243   2   -15.69777   -11.77333    -7.84889
   244   2   -11.77333   -11.77333    -7.84889
   245   2    -7.84889   -11.77333    -7.84889
   246   2    -3.92444   -11.77333    -7.84889
   247   2     0.00000   -11.77333    -7.84889
   248   3     3.92444   -11.77333    -7.84889
   249   3     7.84889   -11.77333    -7.84889
   250   3    11.77333   -11.77333    -7.84889
   251   2    15.69777   -11.77333    -7.84889
   252   2    19.62221   -11.77333    -7.84889
   253   1   -19.62221    -7.84889    -7.84889
   254   2   -15.69777    -7.84889    -7.84889
   255   2   -11.77333    -7.84889    -7.84889
   256   3    -7.84889    -7.84889    -7.84889
   257   2    -3.92444    -7.84889    -7.84889
   258   1     0.00000    -7.84889    -7.84889
   259   2     3.92444    -7.84889    -7.84889
   260   3     7.84889    -7.84889    -7.84889
   261   2    11.77333    -7.84889    -7.84889
   262   3    15.69777    -7.84889    -7.84889
   263   2    19.62221    -7.84889    -7.84889
   264   1   -19.62221    -3.92444    -7.84889
   265   2   -15.69777    -3.92444    -7.84889
   266   1   -11.77333    -3.92444    -7.84889
   267   3    -7.84889    -3.92444    -7.84889
   268   3    -3.92444    -3.92444    -7.84889
   269   3     0.00000    -3.92444    -7.84889
   270   2     3.92444    -3.92444    -7.84889
   271   3     7.84889    -3.92444    -7.84889
   272   3    11.77333    -3.92444    -7.84889
   273   1    15.69777    -3.92444    -7.84889
   274   2    19.62221    -3.92444    -7.84889
   275   2   -23.54666     0.00000    -7.84889
   276   1   -19.62221     0.00000    -7.84889
   277   2   -15.69777     0.00000    -7.84889
   278   3   -11.77333     0.00000    -7.84889
   279   3    -7.84889     0.00000    -7.84889
   280   1    -3.92444     0.00000    -7.84889
   281   3     0.00000     0.00000    -7.84889
   282   3     3.92444     0.00000    -7.84889
   283   3     7.84889     0.00000    -7.84889
   284   3    11.77333     0.00000    -7.84889
   285   3    15.69777     0.00000    -7.84889
   286   2    19.62221     0.00000    -7.84889
   287   2    23.54666     0.00000    -7.84889
   288   1   -19.62221     3.92444    -7.84889
   289   1   -15.69777     3.92444    -7.84889
   290   2   -11.77333     3.92444    -7.84889
   291   3    -7.84889     3.92444    -7.84889
   292   2    -3.92444     3.92444    -7.84889
   293   3     0.00000     3.92444    -7.84889
   294   2     3.92444     3.92444    -7.84889
   295   2     7.84889     3.92444    -7.84889
   296   2    11.77333     3.92444    -7.84889
   297   2    15.69777     3.92444    -7.84889
   298   2    19.62221     3.92444    -7.84889
   299   2   -19.62221     7.84889    -7.84889
   300   3   -15.69777     7.84889    -7.84889
   301   2   -11.77333     7.84889    -7.84889
   302   2    -7.84889     7.84889    -7.84889
   303   2    -3.92444     7.84889    -7.84889
   304   3     0.00000     7.84889    -7.84889
   305   2     3.92444     7.84889    -7.84889
   306   3     7.84889     7.84889    -7.84889
   307   2    11.77333     7.84889    -7.84889
   308   1    15.69777     7.84889    -7.84889
   309   2    19.62221     7.84889    -7.84889
   310   1   -19.62221    11.77333    -7.84889
   311   2   -15.69777    11.77333    -7.84889
   312   3   -11.77333    11.77333    -7.84889
   313   3    -7.84889    11.77333    -7.84889
   314   2    -3.92444    11.77333    -7.84889
   315   1     0.00000    11.77333    -7.84889
   316   2     3.92444    11.77333    -7.84889
   317   3     7.84889    11.77333    -7.84889
   318   2    11.77333    11.77333    -7.84889
   319   2    15.69777    11.77333    -7.84889
   320   2    19.62221    11.77333    -7.84889
   321   1   -15.69777    15.69777    -7.84889
   322   2   -11.77333    15.69777    -7.84889
   323   1    -7.84889    15.69777    -7.84889
   324   2    -3.92444    15.69777    -7.84889
   325   3     0.00000    15.69777    -7.84889
   326   2     3.92444    15.69777    -7.84889
   327   2     7.84889    15.69777    -7.84889
   328   2    11.77333    15.69777    -7.84889
   329   2    15.69777    15.69777    -7.84889
   330   2   -11.77333    19.62221    -7.84889
   331   2    -7.84889    19.62221    -7.84889
   332   2    -3.92444    19.62221    -7.84889
   333   2     0.00000    19.62221    -7.84889
   334   2     3.92444    19.62221    -7.84889
   335   2     7.84889    19.62221    -7.84889
   336   1    11.77333    19.62221    -7.84889
   337   1     0.00000    23.54666    -7.84889
   338   2    -3.92444   -23.54666    -3.92444
   339   2     0.00000   -23.54666    -3.92444
   340   1     3.92444   -23.54666    -3.92444
   341   2   -11.77333   -19.62221    -3.92444
   342   2    -7.84889   -19.62221    -3.92444
   343   3    -3.92444   -19.62221    -3.92444
   344   2     0.00000   -19.62221    -3.92444
   345   2     3.92444   -19.62221    -3.92444
   346   2     7.84889   -19.62221    -3.92444
   347   2    11.77333   -19.62221    -3.92444
   348   1   -15.69777   -15.69777    -3.92444
   349   3   -11.77333   -15.69777    -3.92444
   350   1    -7.84889   -15.69777    -3.92444
   351   3    -3.92444   -15.69777    -3.92444
   352   2     0.00000   -15.69777    -3.92444
   353   2     3.92444   -15.69777    -3.92444
   354   3     7.84889   -15.69777    -3.92444
   355   2    11.77333   -15.69777    -3.92444
   356   2    15.69777   -15.69777    -3.92444
   357   2   -19.62221   -11.77333    -3.92444
   358   2   -15.69777   -11.77333    -3.92444
   359   2   -11.77333   -11.77333    -3.92444
   360   3    -7.84889   -11.77333    -3.92444
   361   2    -3.92444   -11.77333    -3.92444
   362   1     0.00000   -11.77333    -3.92444
   363   2     3.92444   -11.77333    -3.92444
   364   3     7.84889   -11.77333    -3.92444
   365   2    11.77333   -11.77333    -3.92444
   366   2    15.69777   -11.77333    -3.92444
   367   2    19.62221   -11.77333    -3.92444
   368   2   -19.62221    -7.84889    -3.92444
   369   2   -15.69777    -7.84889    -3.92444
   370   3   -11.77333    -7.84889    -3.92444
   371   2    -7.84889    -7.84889    -3.92444
   372   1    -3.92444    -7.84889    -3.92444
   373   3     0.00000    -7.84889    -3.92444
   374   1     3.92444    -7.84889    -3.92444
   375   3     7.84889    -7.84889    -3.92444
   376   3    11.77333    -7.84889    -3.92444
   377   1    15.69777    -7.84889    -3.92444
   378   2    19.62221    -7.84889    -3.92444
   379   2   -23.54666    -3.92444    -3.92444
   380   1   -19.62221    -3.92444    -3.92444
   381   3   -15.69777    -3.92444    -3.92444
   382   2   -11.77333    -3.92444    -3.92444
   383   2    -7.84889    -3.92444    -3.92444
   384   3    -3.92444    -3.92444    -3.92444
   385   3     0.00000    -3.92444    -3.92444
   386   3     3.92444    -3.92444    -3.92444
   387   3     7.84889    -3.92444    -3.92444
   388   2    11.77333    -3.92444    -3.92444
   389   3    15.69777    -3.92444    -3.92444
   390   1    19.62221    -3.92444    -3.92444
   391   2    23.54666    -3.92444    -3.92444
   392   2   -23.54666     0.00000    -3.92444
   393   1   -19.62221     0.00000    -3.92444
   394   3   -15.69777     0.00000    -3.92444
   395   3   -11.77333     0.00000    -3.92444
   396   3    -7.84889     0.00000    -3.92444
   397   3    -3.92444     0.00000    -3.92444
   398   3     0.00000     0.00000    -3.92444
   399   1     3.92444     0.00000    -3.92444
   400   3     7.84889     0.00000    -3.92444
   401   1    11.77333     0.00000    -3.92444
   402   2    15.69777     0.00000    -3.92444
   403   3    19.62221     0.00000    -3.92444
   404   1    23.54666     0.00000    -3.92444
   405   1   -23.54666     3.92444    -3.92444
   406   1   -19.62221     3.92444    -3.92444
   407   2   -15.69777     3.92444    -3.92444
   408   2   -11.77333     3.92444    -3.92444
   409   1    -7.84889     3.92444    -3.92444
   410   3    -3.92444     3.92444    -3.92444
   411   3     0.00000     3.92444    -3.92444
   412   1     3.92444     3.92444    -3.92444
   413   1     7.84889     3.92444    -3.92444
   414   3    11.77333     3.92444    -3.92444
   415   1    15.69777     3.92444    -3.92444
   416   3    19.62221     3.92444    -3.92444
   417   2    23.54666     3.92444    -3.92444
   418   2   -19.62221     7.84889    -3.92444
   419   1   -15.69777     7.84889    -3.92444
   420   3   -11.77333     7.84889    -3.92444
   421   2    -7.84889     7.84889    -3.92444
   422   3    -3.92444     7.84889    -3.92444
   423   1     0.00000     7.84889    -3.92444
   424   1     3.92444     7.84889    -3.92444
   425   2     7.84889     7.84889    -3.92444
   426   2    11.77333     7.84889    -3.92444
   427   1    15.69777     7.84889    -3.92444
   428   1    19.62221     7.84889    -3.92444
   429   1   -19.62221    11.77333    -3.92444
   430   3   -15.69777    11.77333    -3.92444
   431   1   -11.77333    11.77333    -3.92444
   432   2    -7.84889    11.77333    -3.92444
   433   3    -3.92444    11.77333    -3.92444
   434   2     0.00000    11.77333    -3.92444
   435   3     3.92444    11.77333    -3.92444
   436   2     7.84889    11.77333    -3.92444
   437   1    11.77333    11.77333    -3.92444
   438   1    15.69777    11.77333    -3.92444
   439   1    19.62221    11.77333    -3.92444
   440   1   -15.69777    15.69777    -3.92444
   441   1   -11.77333    15.69777    -3.92444
   442   3    -7.84889    15.69777    -3.92444
   443   3    -3.92444    15.69777    -3.92444
   444   1     0.00000    15.69777    -3.92444
   445   3     3.92444    15.69777    -3.92444
   446   2     7.84889    15.69777    -3.92444
   447   3    11.77333    15.69777    -3.92444
   448   1    15.69777    15.69777    -3.92444
   449   2   -11.77333    19.62221    -3.92444
   450   2    -7.84889    19.62221    -3.92444
   451   2    -3.92444    19.62221    -3.92444
   452   1     0.00000    19.62221    -3.92444
   453   3     3.92444    19.62221    -3.92444
   454   3     7.84889    19.62221    -3.92444
   455   2    11.77333    19.62221    -3.92444
   456   1    -3.92444    23.54666    -3.92444
   457   2     0.00000    23.54666    -3.92444
   458   2     3.92444    23.54666    -3.92444
   459   2    -7.84889   -23.54666     0.00000
   460   2    -3.92444   -23.54666     0.00000
   461   2     0.00000   -23.54666     0.00000
   462   2     3.92444   -23.54666     0.00000
   463   1     7.84889   -23.54666     0.00000
   464   2   -11.77333   -19.62221     0.00000
   465   2    -7.84889   -19.62221     0.00000
   466   2    -3.92444   -19.62221     0.00000
   467   2     0.00000   -19.62221     0.00000
   468   1     3.92444   -19.62221     0.00000
   469   1     7.84889   -19.62221     0.00000
   470   2    11.77333   -19.62221     0.00000
   471   1   -15.69777   -15.69777     0.00000
   472   2   -11.77333   -15.69777     0.00000
   473   2    -7.84889   -15.69777     0.00000
   474   3    -3.92444   -15.69777     0.00000
   475   3     0.00000   -15.69777     0.00000
   476   3     3.92444   -15.69777     0.00000
   477   3     7.84889   -15.69777     0.00000
   478   2    11.77333   -15.69777     0.00000
   479   2    15.69777   -15.69777     0.00000
   480   2   -19.62221   -11.77333     0.00000
   481   2   -15.69777   -11.77333     0.00000
   482   1   -11.77333   -11.77333     0.00000
   483   2    -7.84889   -11.77333     0.00000
   484   3    -3.92444   -11.77333     0.00000
   485   1     0.00000   -11.77333     0.00000
   486   1     3.92444   -11.77333     0.00000
   487   3     7.84889   -11.77333     0.00000
   488   3    11.77333   -11.77333     0.00000
   489   1    15.69777   -11.77333     0.00000
   490   2    19.62221   -11.77333     0.00000
   491   1   -23.54666    -7.84889     0.00000
   492   3   -19.62221    -7.84889     0.00000
   493   2   -15.69777    -7.84889     0.00000
   494   3   -11.77333    -7.84889     0.00000
   495   2    -7.84889    -7.84889     0.00000
   496   3    -3.92444    -7.84889     0.00000
   497   3     0.00000    -7.84889     0.00000
   498   2     3.92444    -7.84889     0.00000
   499   1     7.84889    -7.84889     0.00000
   500   2    11.77333    -7.84889     0.00000
   501   3    15.69777    -7.84889     0.00000
   502   2    19.62221    -7.84889     0.00000
   503   1    23.54666    -7.84889     0.00000
   504   1   -23.54666    -3.92444     0.00000
   505   1   -19.62221    -3.92444     0.00000
   506   1   -15.69777    -3.92444     0.00000
   507   2   -11.77333    -3.92444     0.00000
   508   3    -7.84889    -3.92444     0.00000
   509   3    -3.92444    -3.92444     0.00000
   510   3     0.00000    -3.92444     0.00000
   511   1     3.92444    -3.92444     0.00000
   512   3     7.84889    -3.92444     0.00000
   513   3    11.77333    -3.92444     0.00000
   514   3    15.69777    -3.92444     0.00000
   515   1    19.62221    -3.92444     0.00000
   516   1    23.54666    -3.92444     0.00000
   517   2   -23.54666     0.00000     0.00000
   518   2   -19.62221     0.00000     0.00000
   519   1   -15.69777     0.00000     0.00000
   520   3   -11.77333     0.00000     0.00000
   521   3    -7.84889     0.00000     0.00000
   522   3    -3.92444     0.00000     0.00000
   523   3     0.00000     0.00000     0.00000
   524   3     3.92444     0.00000     0.00000
   525   3     7.84889     0.00000     0.00000
   526   3    11.77333     0.00000     0.00000
   527   3    15.69777     0.00000     0.00000
   528   3    19.62221     0.00000     0.00000
   529   1    23.54666     0.00000     0.00000
   530   2   -23.54666     3.92444     0.00000
   531   2   -19.62221     3.92444     0.00000
   532   3   -15.69777     3.92444     0.00000
   533   3   -11.77333     3.92444     0.00000
   534   1    -7.84889     3.92444     0.00000
   535   3    -3.92444     3.92444     0.00000
   536   3     0.00000     3.92444     0.00000
   537   3     3.92444     3.92444     0.00000
   538   3     7.84889     3.92444     0.00000
   539   3    11.77333     3.92444     0.00000
   540   1    15.69777     3.92444     0.00000
   541   3    19.62221     3.92444     0.00000
   542   2    23.54666     3.92444     0.00000
   543   2   -23.54666     7.84889     0.00000
   544   2   -19.62221     7.84889     0.00000
   545   2   -15.69777     7.84889     0.00000
   546   2   -11.77333     7.84889     0.00000
   547   2    -7.84889     7.84889     0.00000
   548   1    -3.92444     7.84889     0.00000
   549   3     0.00000     7.84889     0.00000
   550   2     3.92444     7.84889     0.00000
   551   3     7.84889     7.84889     0.00000
   552   1    11.77333     7.84889     0.00000
   553   3    15.69777     7.84889     0.00000
   554   2    19.62221     7.84889     0.00000
   555   2    23.54666     7.84889     0.00000
   556   2   -19.62221    11.77333     0.00000
   557   2   -15.69777    11.77333     0.00000
   558   3   -11.77333    11.77333     0.00000
   559   3    -7.84889    11.77333     0.00000
   560   3    -3.92444    11.77333     0.00000
   561   3     0.00000    11.77333     0.00000
   562   2     3.92444    11.77333     0.00000
   563   3     7.84889    11.77333     0.00000
   564   3    11.77333    11.77333     0.00000
   565   1    15.69777    11.77333     0.00000
   566   2    19.62221    11.77333     0.00000
   567   2   -15.69777    15.69777     0.00000
   568   1   -11.77333    15.69777     0.00000
   569   2    -7.84889    15.69777     0.00000
   570   2    -3.92444    15.69777     0.00000
   571   2     0.00000    15.69777     0.00000
   572   1     3.92444    15.69777     0.00000
   573   3     7.84889    15.69777     0.00000
   574   1    11.77333    15.69777     0.00000
   575   2    15.69777    15.69777     0.00000
   576   3   -11.77333    19.62221     0.00000
   577   2    -7.84889    19.62221     0.00000
   578   2    -3.92444    19.62221     0.00000
   579   2     0.00000    19.62221     0.00000
   580   2     3.92444    19.62221     0.00000
   581   2     7.84889    19.62221     0.00000
   582   2    11.77333    19.62221     0.00000
   583   2    -7.84889    23.54666     0.00000
   584   2    -3.92444    23.54666     0.00000
   585   1     0.00000    23.54666     0.00000
   586   2     3.92444    23.54666     0.00000
   587   2     7.84889    23.54666     0.00000
   588   2    -3.92444   -23.54666     3.92444
   589   1     0.00000   -23.54666     3.92444
   590   2     3.92444   -23.54666     3.92444
   591   2   -11.77333   -19.62221     3.92444
   592   1    -7.84889   -19.62221     3.92444
   593   3    -3.92444   -19.62221     3.92444
   594   1     0.00000   -19.62221     3.92444
   595   3     3.92444   -19.62221     3.92444
   596   2     7.84889   -19.62221     3.92444
   597   1    11.77333   -19.62221     3.92444
   598   2   -15.69777   -15.69777     3.92444
   599   3   -11.77333   -15.69777     3.92444
   600   3    -7.84889   -15.69777     3.92444
   601   1    -3.92444   -15.69777     3.92444
   602   3     0.00000   -15.69777     3.92444
   603   2     3.92444   -15.69777     3.92444
   604   3     7.84889   -15.69777     3.92444
   605   2    11.77333   -15.69777     3.92444
   606   1    15.69777   -15.69777     3.92444
   607   2   -19.62221   -11.77333     3.92444
   608   3   -15.69777   -11.77333     3.92444
   609   1   -11.77333   -11.77333     3.92444
   610   3    -7.84889   -11.77333     3.92444
   611   3    -3.92444   -11.77333     3.92444
   612   1     0.00000   -11.77333     3.92444
   613   3     3.92444   -11.77333     3.92444
   614   2     7.84889   -11.77333     3.92444
   615   3    11.77333   -11.77333     3.92444
   616   2    15.69777   -11.77333     3.92444
   617   3    19.62221   -11.77333     3.92444
   618   1   -19.62221    -7.84889     3.92444
   619   2   -15.69777    -7.84889     3.92444
   620   3   -11.77333    -7.84889     3.92444
   621   3    -7.84889    -7.84889     3.92444
   622   1    -3.92444    -7.84889     3.92444
   623   2     0.00000    -7.84889     3.92444
   624   1     3.92444    -7.84889     3.92444
   625   1     7.84889    -7.84889     3.92444
   626   3    11.77333    -7.84889     3.92444
   627   3    15.69777    -7.84889     3.92444
   628   2    19.62221    -7.84889     3.92444
   629   1   -23.54666    -3.92444     3.92444
   630   1   -19.62221    -3.92444     3.92444
   631   3   -15.69777    -3.92444     3.92444
   632   2   -11.77333    -3.92444     3.92444
   633   2    -7.84889    -3.92444     3.92444
   634   3    -3.92444    -3.92444     3.92444