LAMMPS DATA FOR MEAM SIMULATION

   4321   atoms
      3   atom types

  -33.55   33.55   xlo xhi
  -33.55   33.55   ylo yhi
  -33.55   33.55   zlo zhi

 Atoms

     1   2     0.00000    -7.84889   -23.54666
     2   2    -3.92444    -3.92444   -23.54666
     3   1     0.00000    -3.92444   -23.54666
     4   1     3.92444    -3.92444   -23.54666
     5   2    -7.84889     0.00000   -23.54666
     6   3    -3.92444     0.00000   -23.54666
     7   1     0.00000     0.00000   -23.54666
     8   2     3.92444     0.00000   -23.54666
     9   1     7.84889     0.00000   -23.54666
    10   1    -3.92444     3.92444   -23.54666
    11   3     0.00000     3.92444   -23.54666
    12   2     3.92444     3.92444   -23.54666
    13   1     0.00000     7.84889   -23.54666
    14   1    -7.84889   -11.77333   -19.62221
    15   2    -3.92444   -11.77333   -19.62221
    16   3     0.00000   -11.77333   -19.62221
    17   2     3.92444   -11.77333   -19.62221
    18   2     7.84889   -11.77333   -19.62221
    19   2   -11.77333    -7.84889   -19.62221
    20   1    -7.84889    -7.84889   -19.62221
    21   1    -3.92444    -7.84889   -19.62221
    22   3     0.00000    -7.84889   -19.62221
    23   3     3.92444    -7.84889   -19.62221
    24   3     7.84889    -7.84889   -19.62221
    25   2    11.77333    -7.84889   -19.62221
    26   2   -11.77333    -3.92444   -19.62221
    27   3    -7.84889    -3.92444   -19.62221
    28   3    -3.92444    -3.92444   -19.62221
    29   1     0.00000    -3.92444   -19.62221
    30   1     3.92444    -3.92444   -19.62221
    31   2     7.84889    -3.92444   -19.62221
    32   3    11.77333    -3.92444   -19.62221
    33   2   -11.77333     0.00000   -19.62221
    34   3    -7.84889     0.00000   -19.62221
    35   2    -3.92444     0.00000   -19.62221
    36   2     0.00000     0.00000   -19.62221
    37   3     3.92444     0.00000   -19.62221
    38   3     7.84889     0.00000   -19.62221
    39   2    11.77333     0.00000   -19.62221
    40   3   -11.77333     3.92444   -19.62221
    41   2    -7.84889     3.92444   -19.62221
    42   1    -3.92444     3.92444   -19.62221
    43   1     0.00000     3.92444   -19.62221
    44   3     3.92444     3.92444   -19.62221
    45   2     7.84889     3.92444   -19.62221
    46   2    11.77333     3.92444   -19.62221
    47   3   -11.77333     7.84889   -19.62221
    48   2    -7.84889     7.84889   -19.62221
    49   2    -3.92444     7.84889   -19.62221
    50   1     0.00000     7.84889   -19.62221
    51   3     3.92444     7.84889   -19.62221
    52   1     7.84889     7.84889   -19.62221
    53   2    11.77333     7.84889   -19.62221
    54   1    -7.84889    11.77333   -19.62221
    55   2    -3.92444    11.77333   -19.62221
    56   1     0.00000    11.77333   -19.62221
    57   3     3.92444    11.77333   -19.62221
    58   3     7.84889    11.77333   -19.62221
    59   3    -7.84889   -15.69777   -15.69777
    60   1    -3.92444   -15.69777   -15.69777
    61   3     0.00000   -15.69777   -15.69777
    62   3     3.92444   -15.69777   -15.69777
    63   1     7.84889   -15.69777   -15.69777
    64   2   -11.77333   -11.77333   -15.69777
    65   1    -7.84889   -11.77333   -15.69777
    66   3    -3.92444   -11.77333   -15.69777
    67   3     0.00000   -11.77333   -15.69777
    68   3     3.92444   -11.77333   -15.69777
    69   1     7.84889   -11.77333   -15.69777
    70   1    11.77333   -11.77333   -15.69777
    71   2   -15.69777    -7.84889   -15.69777
    72   2   -11.77333    -7.84889   -15.69777
    73   2    -7.84889    -7.84889   -15.69777
    74   2    -3.92444    -7.84889   -15.69777
    75   3     0.00000    -7.84889   -15.69777
    76   3     3.92444    -7.84889   -15.69777
    77   2     7.84889    -7.84889   -15.69777
    78   1    11.77333    -7.84889   -15.69777
    79   2    15.69777    -7.84889   -15.69777
    80   2   -15.69777    -3.92444   -15.69777
    81   3   -11.77333    -3.92444   -15.69777
    82   1    -7.84889    -3.92444   -15.69777
    83   1    -3.92444    -3.92444   -15.69777
    84   2     0.00000    -3.92444   -15.69777
    85   2     3.92444    -3.92444   -15.69777
    86   3     7.84889    -3.92444   -15.69777
    87   1    11.77333    -3.92444   -15.69777
    88   1    15.69777    -3.92444   -15.69777
    89   1   -15.69777     0.00000   -15.69777
    90   1   -11.77333     0.00000   -15.69777
    91   1    -7.84889     0.00000   -15.69777
    92   2    -3.92444     0.00000   -15.69777
    93   3     0.00000     0.00000   -15.69777
    94   2     3.92444     0.00000   -15.69777
    95   3     7.84889     0.00000   -15.69777
    96   1    11.77333     0.00000   -15.69777
    97   2    15.69777     0.00000   -15.69777
    98   3   -15.69777     3.92444   -15.69777
    99   1   -11.77333     3.92444   -15.69777
   100   3    -7.84889     3.92444   -15.69777
   101   2    -3.92444     3.92444   -15.69777
   102   3     0.00000     3.92444   -15.69777
   103   1     3.92444     3.92444   -15.69777
   104   1     7.84889     3.92444   -15.69777
   105   2    11.77333     3.92444   -15.69777
   106   2    15.69777     3.92444   -15.69777
   107   2   -15.69777     7.84889   -15.69777
   108   2   -11.77333     7.84889   -15.69777
   109   1    -7.84889     7.84889   -15.69777
   110   2    -3.92444     7.84889   -15.69777
   111   2     0.00000     7.84889   -15.69777
   112   1     3.92444     7.84889   -15.69777
   113   3     7.84889     7.84889   -15.69777
   114   2    11.77333     7.84889   -15.69777
   115   3    15.69777     7.84889   -15.69777
   116   2   -11.77333    11.77333   -15.69777
   117   2    -7.84889    11.77333   -15.69777
   118   2    -3.92444    11.77333   -15.69777
   119   2     0.00000    11.77333   -15.69777
   120   1     3.92444    11.77333   -15.69777
   121   2     7.84889    11.77333   -15.69777
   122   1    11.77333    11.77333   -15.69777
   123   2    -7.84889    15.69777   -15.69777
   124   3    -3.92444    15.69777   -15.69777
   125   1     0.00000    15.69777   -15.69777
   126   1     3.92444    15.69777   -15.69777
   127   2     7.84889    15.69777   -15.69777
   128   1    -7.84889   -19.62221   -11.77333
   129   3    -3.92444   -19.62221   -11.77333
   130   2     0.00000   -19.62221   -11.77333
   131   2     3.92444   -19.62221   -11.77333
   132   1     7.84889   -19.62221   -11.77333
   133   2   -11.77333   -15.69777   -11.77333
   134   2    -7.84889   -15.69777   -11.77333
   135   2    -3.92444   -15.69777   -11.77333
   136   2     0.00000   -15.69777   -11.77333
   137   2     3.92444   -15.69777   -11.77333
   138   1     7.84889   -15.69777   -11.77333
   139   2    11.77333   -15.69777   -11.77333
   140   2   -15.69777   -11.77333   -11.77333
   141   3   -11.77333   -11.77333   -11.77333
   142   2    -7.84889   -11.77333   -11.77333
   143   2    -3.92444   -11.77333   -11.77333
   144   2     0.00000   -11.77333   -11.77333
   145   3     3.92444   -11.77333   -11.77333
   146   2     7.84889   -11.77333   -11.77333
   147   2    11.77333   -11.77333   -11.77333
   148   3    15.69777   -11.77333   -11.77333
   149   1   -19.62221    -7.84889   -11.77333
   150   1   -15.69777    -7.84889   -11.77333
   151   2   -11.77333    -7.84889   -11.77333
   152   2    -7.84889    -7.84889   -11.77333
   153   2    -3.92444    -7.84889   -11.77333
   154   2     0.00000    -7.84889   -11.77333
   155   2     3.92444    -7.84889   -11.77333
   156   3     7.84889    -7.84889   -11.77333
   157   3    11.77333    -7.84889   -11.77333
   158   1    15.69777    -7.84889   -11.77333
   159   1    19.62221    -7.84889   -11.77333
   160   2   -19.62221    -3.92444   -11.77333
   161   2   -15.69777    -3.92444   -11.77333
   162   2   -11.77333    -3.92444   -11.77333
   163   3    -7.84889    -3.92444   -11.77333
   164   2    -3.92444    -3.92444   -11.77333
   165   2     0.00000    -3.92444   -11.77333
   166   2     3.92444    -3.92444   -11.77333
   167   1     7.84889    -3.92444   -11.77333
   168   1    11.77333    -3.92444   -11.77333
   169   2    15.69777    -3.92444   -11.77333
   170   1    19.62221    -3.92444   -11.77333
   171   3   -19.62221     0.00000   -11.77333
   172   1   -15.69777     0.00000   -11.77333
   173   2   -11.77333     0.00000   -11.77333
   174   2    -7.84889     0.00000   -11.77333
   175   1    -3.92444     0.00000   -11.77333
   176   2     0.00000     0.00000   -11.77333
   177   2     3.92444     0.00000   -11.77333
   178   2     7.84889     0.00000   -11.77333
   179   1    11.77333     0.00000   -11.77333
   180   2    15.69777     0.00000   -11.77333
   181   1    19.62221     0.00000   -11.77333
   182   3   -19.62221     3.92444   -11.77333
   183   1   -15.69777     3.92444   -11.77333
   184   2   -11.77333     3.92444   -11.77333
   185   1    -7.84889     3.92444   -11.77333
   186   2    -3.92444     3.92444   -11.77333
   187   3     0.00000     3.92444   -11.77333
   188   3     3.92444     3.92444   -11.77333
   189   1     7.84889     3.92444   -11.77333
   190   2    11.77333     3.92444   -11.77333
   191   1    15.69777     3.92444   -11.77333
   192   1    19.62221     3.92444   -11.77333
   193   3   -19.62221     7.84889   -11.77333
   194   2   -15.69777     7.84889   -11.77333
   195   2   -11.77333     7.84889   -11.77333
   196   1    -7.84889     7.84889   -11.77333
   197   1    -3.92444     7.84889   -11.77333
   198   1     0.00000     7.84889   -11.77333
   199   2     3.92444     7.84889   -11.77333
   200   1     7.84889     7.84889   -11.77333
   201   1    11.77333     7.84889   -11.77333
   202   3    15.69777     7.84889   -11.77333
   203   2    19.62221     7.84889   -11.77333
   204   3   -15.69777    11.77333   -11.77333
   205   2   -11.77333    11.77333   -11.77333
   206   3    -7.84889    11.77333   -11.77333
   207   2    -3.92444    11.77333   -11.77333
   208   2     0.00000    11.77333   -11.77333
   209   3     3.92444    11.77333   -11.77333
   210   1     7.84889    11.77333   -11.77333
   211   2    11.77333    11.77333   -11.77333
   212   3    15.69777    11.77333   -11.77333
   213   2   -11.77333    15.69777   -11.77333
   214   2    -7.84889    15.69777   -11.77333
   215   2    -3.92444    15.69777   -11.77333
   216   2     0.00000    15.69777   -11.77333
   217   2     3.92444    15.69777   -11.77333
   218   1     7.84889    15.69777   -11.77333
   219   3    11.77333    15.69777   -11.77333
   220   2    -7.84889    19.62221   -11.77333
   221   2    -3.92444    19.62221   -11.77333
   222   2     0.00000    19.62221   -11.77333
   223   3     3.92444    19.62221   -11.77333
   224   3     7.84889    19.62221   -11.77333
   225   2     0.00000   -23.54666    -7.84889
   226   1   -11.77333   -19.62221    -7.84889
   227   2    -7.84889   -19.62221    -7.84889
   228   2    -3.92444   -19.62221    -7.84889
   229   2     0.00000   -19.62221    -7.84889
   230   3     3.92444   -19.62221    -7.84889
   231   2     7.84889   -19.62221    -7.84889
   232   2    11.77333   -19.62221    -7.84889
   233   2   -15.69777   -15.69777    -7.84889
   234   2   -11.77333   -15.69777    -7.84889
   235   3    -7.84889   -15.69777    -7.84889
   236   1    -3.92444   -15.69777    -7.84889
   237   3     0.00000   -15.69777    -7.84889
   238   3     3.92444   -15.69777    -7.84889
   239   3     7.84889   -15.69777    -7.84889
   240   1    11.77333   -15.69777    -7.84889
   241   1    15.69777   -15.69777    -7.84889
   242   1   -19.62221   -11.77333    -7.84889
   243   3   -15.69777   -11.77333    -7.84889
   244   2   -11.77333   -11.77333    -7.84889
   245   2    -7.84889   -11.77333    -7.84889
   246   3    -3.92444   -11.77333    -7.84889
   247   1     0.00000   -11.77333    -7.84889
   248   1     3.92444   -11.77333    -7.84889
   249   2     7.84889   -11.77333    -7.84889
   250   2    11.77333   -11.77333    -7.84889
   251   2    15.69777   -11.77333    -7.84889
   252   2    19.62221   -11.77333    -7.84889
   253   1   -19.62221    -7.84889    -7.84889
   254   1   -15.69777    -7.84889    -7.84889
   255   3   -11.77333    -7.84889    -7.84889
   256   1    -7.84889    -7.84889    -7.84889
   257   2    -3.92444    -7.84889    -7.84889
   258   1     0.00000    -7.84889    -7.84889
   259   1     3.92444    -7.84889    -7.84889
   260   1     7.84889    -7.84889    -7.84889
   261   2    11.77333    -7.84889    -7.84889
   262   1    15.69777    -7.84889    -7.84889
   263   2    19.62221    -7.84889    -7.84889
   264   2   -19.62221    -3.92444    -7.84889
   265   1   -15.69777    -3.92444    -7.84889
   266   1   -11.77333    -3.92444    -7.84889
   267   2    -7.84889    -3.92444    -7.84889
   268   1    -3.92444    -3.92444    -7.84889
   269   2     0.00000    -3.92444    -7.84889
   270   1     3.92444    -3.92444    -7.84889
   271   1     7.84889    -3.92444    -7.84889
   272   2    11.77333    -3.92444    -7.84889
   273   3    15.69777    -3.92444    -7.84889
   274   1    19.62221    -3.92444    -7.84889
   275   1   -23.54666     0.00000    -7.84889
   276   3   -19.62221     0.00000    -7.84889
   277   2   -15.69777     0.00000    -7.84889
   278   2   -11.77333     0.00000    -7.84889
   279   1    -7.84889     0.00000    -7.84889
   280   3    -3.92444     0.00000    -7.84889
   281   1     0.00000     0.00000    -7.84889
   282   2     3.92444     0.00000    -7.84889
   283   1     7.84889     0.00000    -7.84889
   284   2    11.77333     0.00000    -7.84889
   285   2    15.69777     0.00000    -7.84889
   286   3    19.62221     0.00000    -7.84889
   287   1    23.54666     0.00000    -7.84889
   288   2   -19.62221     3.92444    -7.84889
   289   2   -15.69777     3.92444    -7.84889
   290   2   -11.77333     3.92444    -7.84889
   291   1    -7.84889     3.92444    -7.84889
   292   3    -3.92444     3.92444    -7.84889
   293   2     0.00000     3.92444    -7.84889
   294   3     3.92444     3.92444    -7.84889
   295   1     7.84889     3.92444    -7.84889
   296   1    11.77333     3.92444    -7.84889
   297   2    15.69777     3.92444    -7.84889
   298   2    19.62221     3.92444    -7.84889
   299   2   -19.62221     7.84889    -7.84889
   300   2   -15.69777     7.84889    -7.84889
   301   3   -11.77333     7.84889    -7.84889
   302   1    -7.84889     7.84889    -7.84889
   303   1    -3.92444     7.84889    -7.84889
   304   3     0.00000     7.84889    -7.84889
   305   1     3.92444     7.84889    -7.84889
   306   3     7.84889     7.84889    -7.84889
   307   3    11.77333     7.84889    -7.84889
   308   3    15.69777     7.84889    -7.84889
   309   1    19.62221     7.84889    -7.84889
   310   2   -19.62221    11.77333    -7.84889
   311   3   -15.69777    11.77333    -7.84889
   312   2   -11.77333    11.77333    -7.84889
   313   3    -7.84889    11.77333    -7.84889
   314   3    -3.92444    11.77333    -7.84889
   315   2     0.00000    11.77333    -7.84889
   316   2     3.92444    11.77333    -7.84889
   317   1     7.84889    11.77333    -7.84889
   318   2    11.77333    11.77333    -7.84889
   319   1    15.69777    11.77333    -7.84889
   320   2    19.62221    11.77333    -7.84889
   321   2   -15.69777    15.69777    -7.84889
   322   2   -11.77333    15.69777    -7.84889
   323   3    -7.84889    15.69777    -7.84889
   324   1    -3.92444    15.69777    -7.84889
   325   3     0.00000    15.69777    -7.84889
   326   2     3.92444    15.69777    -7.84889
   327   2     7.84889    15.69777    -7.84889
   328   2    11.77333    15.69777    -7.84889
   329   3    15.69777    15.69777    -7.84889
   330   3   -11.77333    19.62221    -7.84889
   331   3    -7.84889    19.62221    -7.84889
   332   3    -3.92444    19.62221    -7.84889
   333   1     0.00000    19.62221    -7.84889
   334   2     3.92444    19.62221    -7.84889
   335   1     7.84889    19.62221    -7.84889
   336   1    11.77333    19.62221    -7.84889
   337   1     0.00000    23.54666    -7.84889
   338   2    -3.92444   -23.54666    -3.92444
   339   2     0.00000   -23.54666    -3.92444
   340   1     3.92444   -23.54666    -3.92444
   341   2   -11.77333   -19.62221    -3.92444
   342   2    -7.84889   -19.62221    -3.92444
   343   1    -3.92444   -19.62221    -3.92444
   344   2     0.00000   -19.62221    -3.92444
   345   3     3.92444   -19.62221    -3.92444
   346   1     7.84889   -19.62221    -3.92444
   347   2    11.77333   -19.62221    -3.92444
   348   2   -15.69777   -15.69777    -3.92444
   349   2   -11.77333   -15.69777    -3.92444
   350   2    -7.84889   -15.69777    -3.92444
   351   2    -3.92444   -15.69777    -3.92444
   352   1     0.00000   -15.69777    -3.92444
   353   1     3.92444   -15.69777    -3.92444
   354   1     7.84889   -15.69777    -3.92444
   355   2    11.77333   -15.69777    -3.92444
   356   3    15.69777   -15.69777    -3.92444
   357   3   -19.62221   -11.77333    -3.92444
   358   3   -15.69777   -11.77333    -3.92444
   359   1   -11.77333   -11.77333    -3.92444
   360   2    -7.84889   -11.77333    -3.92444
   361   1    -3.92444   -11.77333    -3.92444
   362   2     0.00000   -11.77333    -3.92444
   363   2     3.92444   -11.77333    -3.92444
   364   3     7.84889   -11.77333    -3.92444
   365   1    11.77333   -11.77333    -3.92444
   366   1    15.69777   -11.77333    -3.92444
   367   1    19.62221   -11.77333    -3.92444
   368   2   -19.62221    -7.84889    -3.92444
   369   2   -15.69777    -7.84889    -3.92444
   370   1   -11.77333    -7.84889    -3.92444
   371   2    -7.84889    -7.84889    -3.92444
   372   2    -3.92444    -7.84889    -3.92444
   373   3     0.00000    -7.84889    -3.92444
   374   3     3.92444    -7.84889    -3.92444
   375   2     7.84889    -7.84889    -3.92444
   376   3    11.77333    -7.84889    -3.92444
   377   3    15.69777    -7.84889    -3.92444
   378   2    19.62221    -7.84889    -3.92444
   379   3   -23.54666    -3.92444    -3.92444
   380   3   -19.62221    -3.92444    -3.92444
   381   2   -15.69777    -3.92444    -3.92444
   382   3   -11.77333    -3.92444    -3.92444
   383   3    -7.84889    -3.92444    -3.92444
   384   2    -3.92444    -3.92444    -3.92444
   385   2     0.00000    -3.92444    -3.92444
   386   3     3.92444    -3.92444    -3.92444
   387   2     7.84889    -3.92444    -3.92444
   388   1    11.77333    -3.92444    -3.92444
   389   3    15.69777    -3.92444    -3.92444
   390   1    19.62221    -3.92444    -3.92444
   391   2    23.54666    -3.92444    -3.92444
   392   1   -23.54666     0.00000    -3.92444
   393   2   -19.62221     0.00000    -3.92444
   394   3   -15.69777     0.00000    -3.92444
   395   2   -11.77333     0.00000    -3.92444
   396   1    -7.84889     0.00000    -3.92444
   397   1    -3.92444     0.00000    -3.92444
   398   2     0.00000     0.00000    -3.92444
   399   3     3.92444     0.00000    -3.92444
   400   3     7.84889     0.00000    -3.92444
   401   2    11.77333     0.00000    -3.92444
   402   3    15.69777     0.00000    -3.92444
   403   2    19.62221     0.00000    -3.92444
   404   2    23.54666     0.00000    -3.92444
   405   3   -23.54666     3.92444    -3.92444
   406   1   -19.62221     3.92444    -3.92444
   407   3   -15.69777     3.92444    -3.92444
   408   2   -11.77333     3.92444    -3.92444
   409   3    -7.84889     3.92444    -3.92444
   410   2    -3.92444     3.92444    -3.92444
   411   1     0.00000     3.92444    -3.92444
   412   1     3.92444     3.92444    -3.92444
   413   1     7.84889     3.92444    -3.92444
   414   2    11.77333     3.92444    -3.92444
   415   2    15.69777     3.92444    -3.92444
   416   2    19.62221     3.92444    -3.92444
   417   2    23.54666     3.92444    -3.92444
   418   2   -19.62221     7.84889    -3.92444
   419   2   -15.69777     7.84889    -3.92444
   420   2   -11.77333     7.84889    -3.92444
   421   2    -7.84889     7.84889    -3.92444
   422   1    -3.92444     7.84889    -3.92444
   423   3     0.00000     7.84889    -3.92444
   424   3     3.92444     7.84889    -3.92444
   425   2     7.84889     7.84889    -3.92444
   426   2    11.77333     7.84889    -3.92444
   427   2    15.69777     7.84889    -3.92444
   428   3    19.62221     7.84889    -3.92444
   429   1   -19.62221    11.77333    -3.92444
   430   2   -15.69777    11.77333    -3.92444
   431   3   -11.77333    11.77333    -3.92444
   432   3    -7.84889    11.77333    -3.92444
   433   3    -3.92444    11.77333    -3.92444
   434   2     0.00000    11.77333    -3.92444
   435   2     3.92444    11.77333    -3.92444
   436   2     7.84889    11.77333    -3.92444
   437   2    11.77333    11.77333    -3.92444
   438   2    15.69777    11.77333    -3.92444
   439   1    19.62221    11.77333    -3.92444
   440   3   -15.69777    15.69777    -3.92444
   441   2   -11.77333    15.69777    -3.92444
   442   2    -7.84889    15.69777    -3.92444
   443   2    -3.92444    15.69777    -3.92444
   444   2     0.00000    15.69777    -3.92444
   445   2     3.92444    15.69777    -3.92444
   446   3     7.84889    15.69777    -3.92444
   447   1    11.77333    15.69777    -3.92444
   448   3    15.69777    15.69777    -3.92444
   449   2   -11.77333    19.62221    -3.92444
   450   2    -7.84889    19.62221    -3.92444
   451   2    -3.92444    19.62221    -3.92444
   452   2     0.00000    19.62221    -3.92444
   453   1     3.92444    19.62221    -3.92444
   454   3     7.84889    19.62221    -3.92444
   455   1    11.77333    19.62221    -3.92444
   456   3    -3.92444    23.54666    -3.92444
   457   1     0.00000    23.54666    -3.92444
   458   2     3.92444    23.54666    -3.92444
   459   1    -7.84889   -23.54666     0.00000
   460   1    -3.92444   -23.54666     0.00000
   461   2     0.00000   -23.54666     0.00000
   462   3     3.92444   -23.54666     0.00000
   463   3     7.84889   -23.54666     0.00000
   464   3   -11.77333   -19.62221     0.00000
   465   2    -7.84889   -19.62221     0.00000
   466   2    -3.92444   -19.62221     0.00000
   467   3     0.00000   -19.62221     0.00000
   468   2     3.92444   -19.62221     0.00000
   469   2     7.84889   -19.62221     0.00000
   470   2    11.77333   -19.62221     0.00000
   471   2   -15.69777   -15.69777     0.00000
   472   2   -11.77333   -15.69777     0.00000
   473   2    -7.84889   -15.69777     0.00000
   474   1    -3.92444   -15.69777     0.00000
   475   3     0.00000   -15.69777     0.00000
   476   1     3.92444   -15.69777     0.00000
   477   2     7.84889   -15.69777     0.00000
   478   2    11.77333   -15.69777     0.00000
   479   2    15.69777   -15.69777     0.00000
   480   2   -19.62221   -11.77333     0.00000
   481   1   -15.69777   -11.77333     0.00000
   482   2   -11.77333   -11.77333     0.00000
   483   2    -7.84889   -11.77333     0.00000
   484   1    -3.92444   -11.77333     0.00000
   485   2     0.00000   -11.77333     0.00000
   486   2     3.92444   -11.77333     0.00000
   487   3     7.84889   -11.77333     0.00000
   488   1    11.77333   -11.77333     0.00000
   489   1    15.69777   -11.77333     0.00000
   490   3    19.62221   -11.77333     0.00000
   491   2   -23.54666    -7.84889     0.00000
   492   2   -19.62221    -7.84889     0.00000
   493   3   -15.69777    -7.84889     0.00000
   494   2   -11.77333    -7.84889     0.00000
   495   2    -7.84889    -7.84889     0.00000
   496   3    -3.92444    -7.84889     0.00000
   497   2     0.00000    -7.84889     0.00000
   498   2     3.92444    -7.84889     0.00000
   499   2     7.84889    -7.84889     0.00000
   500   1    11.77333    -7.84889     0.00000
   501   3    15.69777    -7.84889     0.00000
   502   2    19.62221    -7.84889     0.00000
   503   2    23.54666    -7.84889     0.00000
   504   2   -23.54666    -3.92444     0.00000
   505   3   -19.62221    -3.92444     0.00000
   506   3   -15.69777    -3.92444     0.00000
   507   3   -11.77333    -3.92444     0.00000
   508   1    -7.84889    -3.92444     0.00000
   509   2    -3.92444    -3.92444     0.00000
   510   2     0.00000    -3.92444     0.00000
   511   1     3.92444    -3.92444     0.00000
   512   2     7.84889    -3.92444     0.00000
   513   3    11.77333    -3.92444     0.00000
   514   1    15.69777    -3.92444     0.00000
   515   3    19.62221    -3.92444     0.00000
   516   1    23.54666    -3.92444     0.00000
   517   2   -23.54666     0.00000     0.00000
   518   1   -19.62221     0.00000     0.00000
   519   2   -15.69777     0.00000     0.00000
   520   1   -11.77333     0.00000     0.00000
   521   1    -7.84889     0.00000     0.00000
   522   2    -3.92444     0.00000     0.00000
   523   2     0.00000     0.00000     0.00000
   524   3     3.92444     0.00000     0.00000
   525   1     7.84889     0.00000     0.00000
   526   1    11.77333     0.00000     0.00000
   527   3    15.69777     0.00000     0.00000
   528   2    19.62221     0.00000     0.00000
   529   3    23.54666     0.00000     0.00000
   530   2   -23.54666     3.92444     0.00000
   531   1   -19.62221     3.92444     0.00000
   532   2   -15.69777     3.92444     0.00000
   533   3   -11.77333     3.92444     0.00000
   534   2    -7.84889     3.92444     0.00000
   535   3    -3.92444     3.92444     0.00000
   536   2     0.00000     3.92444     0.00000
   537   2     3.92444     3.92444     0.00000
   538   2     7.84889     3.92444     0.00000
   539   2    11.77333     3.92444     0.00000
   540   1    15.69777     3.92444     0.00000
   541   1    19.62221     3.92444     0.00000
   542   3    23.54666     3.92444     0.00000
   543   1   -23.54666     7.84889     0.00000
   544   3   -19.62221     7.84889     0.00000
   545   3   -15.69777     7.84889     0.00000
   546   2   -11.77333     7.84889     0.00000
   547   1    -7.84889     7.84889     0.00000
   548   1    -3.92444     7.84889     0.00000
   549   3     0.00000     7.84889     0.00000
   550   2     3.92444     7.84889     0.00000
   551   3     7.84889     7.84889     0.00000
   552   1    11.77333     7.84889     0.00000
   553   3    15.69777     7.84889     0.00000
   554   2    19.62221     7.84889     0.00000
   555   2    23.54666     7.84889     0.00000
   556   3   -19.62221    11.77333     0.00000
   557   1   -15.69777    11.77333     0.00000
   558   2   -11.77333    11.77333     0.00000
   559   3    -7.84889    11.77333     0.00000
   560   2    -3.92444    11.77333     0.00000
   561   2     0.00000    11.77333     0.00000
   562   3     3.92444    11.77333     0.00000
   563   3     7.84889    11.77333     0.00000
   564   1    11.77333    11.77333     0.00000
   565   2    15.69777    11.77333     0.00000
   566   2    19.62221    11.77333     0.00000
   567   2   -15.69777    15.69777     0.00000
   568   3   -11.77333    15.69777     0.00000
   569   3    -7.84889    15.69777     0.00000
   570   3    -3.92444    15.69777     0.00000
   571   2     0.00000    15.69777     0.00000
   572   3     3.92444    15.69777     0.00000
   573   2     7.84889    15.69777     0.00000
   574   3    11.77333    15.69777     0.00000
   575   3    15.69777    15.69777     0.00000
   576   2   -11.77333    19.62221     0.00000
   577   3    -7.84889    19.62221     0.00000
   578   3    -3.92444    19.62221     0.00000
   579   1     0.00000    19.62221     0.00000
   580   1     3.92444    19.62221     0.00000
   581   3     7.84889    19.62221     0.00000
   582   3    11.77333    19.62221     0.00000
   583   2    -7.84889    23.54666     0.00000
   584   3    -3.92444    23.54666     0.00000
   585   1     0.00000    23.54666     0.00000
   586   3     3.92444    23.54666     0.00000
   587   2     7.84889    23.54666     0.00000
   588   1    -3.92444   -23.54666     3.92444
   589   1     0.00000   -23.54666     3.92444
   590   1     3.92444   -23.54666     3.92444
   591   2   -11.77333   -19.62221     3.92444
   592   1    -7.84889   -19.62221     3.92444
   593   2    -3.92444   -19.62221     3.92444
   594   2     0.00000   -19.62221     3.92444
   595   1     3.92444   -19.62221     3.92444
   596   3     7.84889   -19.62221     3.92444
   597   2    11.77333   -19.62221     3.92444
   598   1   -15.69777   -15.69777     3.92444
   599   2   -11.77333   -15.69777     3.92444
   600   1    -7.84889   -15.69777     3.92444
   601   3    -3.92444   -15.69777     3.92444
   602   2     0.00000   -15.69777     3.92444
   603   2     3.92444   -15.69777     3.92444
   604   2     7.84889   -15.69777     3.92444
   605   2    11.77333   -15.69777     3.92444
   606   2    15.69777   -15.69777     3.92444
   607   2   -19.62221   -11.77333     3.92444
   608   1   -15.69777   -11.77333     3.92444
   609   2   -11.77333   -11.77333     3.92444
   610   2    -7.84889   -11.77333     3.92444
   611   2    -3.92444   -11.77333     3.92444
   612   1     0.00000   -11.77333     3.92444
   613   3     3.92444   -11.77333     3.92444
   614   2     7.84889   -11.77333     3.92444
   615   2    11.77333   -11.77333     3.92444
   616   2    15.69777   -11.77333     3.92444
   617   2    19.62221   -11.77333     3.92444
   618   3   -19.62221    -7.84889     3.92444
   619   1   -15.69777    -7.84889     3.92444
   620   2   -11.77333    -7.84889     3.92444
   621   2    -7.84889    -7.84889     3.92444
   622   3    -3.92444    -7.84889     3.92444
   623   2     0.00000    -7.84889     3.92444
   624   3     3.92444    -7.84889     3.92444
   625   1     7.84889    -7.84889     3.92444
   626   1    11.77333    -7.84889     3.92444
   627   1    15.69777    -7.84889     3.92444
   628   2    19.62221    -7.84889     3.92444
   629   1   -23.54666    -3.92444     3.92444
   630   2   -19.62221    -3.92444     3.92444
   631   2   -15.69777    -3.92444     3.92444
   632   2   -11.77333    -3.92444     3.92444
   633   1    -7.84889    -3.92444     3.92444
   634   1    -3.92444    -3.92444     3.92444