4321
 Atoms. Timestep: 7188
2 0.191798 -7.46771 -22.8238
2 -3.53781 -3.66454 -22.8958
1 0.162981 -3.83848 -22.7245
1 4.23112 -3.85517 -22.9071
2 -7.76085 -0.634917 -22.4291
3 -3.87001 -0.0515359 -22.795
1 0.389929 -0.0447385 -22.5959
2 3.90818 -0.0389309 -22.7999
1 7.69669 0.0103205 -22.5626
1 -3.55951 3.92874 -22.6461
3 0.343405 3.80412 -22.6442
2 4.14603 3.76689 -22.6959
1 0.317135 7.41787 -22.4795
1 -7.81081 -11.4538 -19.1631
2 -3.70146 -11.3346 -18.952
3 0.103184 -11.2651 -18.9327
2 4.01647 -11.2311 -18.9626
2 7.76661 -11.3137 -19.0202
2 -11.7792 -7.68041 -19.1441
1 -7.70561 -7.38317 -19.2106
1 -3.84361 -7.7572 -19.1718
3 0.0667515 -7.74801 -19.0955
3 3.96155 -7.67027 -19.0509
3 7.64969 -7.50673 -18.7741
2 11.5421 -7.42026 -18.8348
2 -12.1558 -4.39637 -19.5349
3 -7.64096 -3.88841 -19.0892
3 -3.66946 -3.72914 -19.153
1 0.112982 -3.71916 -19.1299
1 3.90669 -3.73361 -18.9815
2 7.632 -3.78019 -19.0071
3 11.6076 -3.73229 -18.9113
2 -11.8705 -0.125501 -18.9891
3 -7.65353 -0.0623024 -19.0903
2 -3.59578 0.0159169 -19.0483
2 0.171267 0.0576519 -18.9483
3 3.91353 0.0335508 -18.8462
3 7.77504 0.0639901 -18.7911
2 11.6606 0.0941225 -18.858
3 -11.6325 3.81567 -18.8638
2 -7.65731 3.79135 -19.1973
1 -3.76476 3.6438 -19.1498
1 0.344143 3.65625 -18.9471
3 4.03977 3.71596 -18.9235
2 7.69473 3.70938 -18.9788
2 11.8391 3.6999 -18.7578
3 -11.6115 7.72492 -18.7456
2 -7.5892 7.58808 -18.9872
2 -3.68085 7.55626 -18.9497
1 0.0154246 7.60585 -19.1581
3 3.96194 7.57968 -18.9637
1 7.65416 7.59524 -18.8322
2 11.6409 8.11267 -19.0795
1 -7.56702 11.3259 -18.8302
2 -3.97495 11.469 -19.0234
1 0.102275 11.6899 -19.2792
3 3.85477 11.3934 -18.8612
3 7.58963 11.2494 -18.766
3 -7.6819 -15.0135 -15.2495
1 -3.81119 -15.8992 -16.2104
3 -0.014537 -15.2665 -15.0108
3 3.96494 -15.2003 -15.2655
1 7.64099 -14.9044 -15.0825
2 -11.7248 -11.8007 -15.4783
1 -7.77141 -11.4224 -15.3127
3 -3.84544 -11.2937 -15.2291
3 0.123148 -11.2738 -15.2104
3 3.97178 -11.3849 -15.2282
1 7.73026 -11.3933 -15.0967
1 11.7734 -11.6554 -15.441
2 -15.6959 -8.85579 -15.7249
2 -11.8466 -7.66157 -15.5994
2 -7.72434 -7.58197 -15.3646
2 -3.62789 -7.5141 -15.3951
3 0.055305 -7.63534 -15.2586
3 3.90989 -7.6208 -15.1324
2 7.77509 -7.60259 -15.116
1 11.6545 -7.60874 -15.3897
2 15.6516 -8.2055 -15.3476
2 -15.7087 -4.34055 -15.4897
3 -11.6444 -3.84301 -15.4347
1 -7.73679 -3.85025 -15.4407
1 -3.80215 -3.78289 -15.4007
2 0.250777 -3.72093 -15.3605
2 3.95743 -3.76348 -15.3368
3 7.67337 -3.87684 -15.0962
1 11.5802 -3.74852 -15.1692
1 15.7107 -3.82899 -15.4906
1 -15.4704 -0.208321 -15.2162
1 -11.567 -0.0863892 -15.3185
1 -7.76689 -0.134489 -15.4294
2 -3.79051 -0.0389954 -15.3578
3 0.0927256 0.0263491 -15.2894
2 3.93377 0.0110485 -15.2769
3 7.61563 0.0119465 -15.1131
1 11.5026 -0.150145 -15.1728
2 15.2594 -0.0695484 -15.2064
3 -15.4657 3.79304 -15.2814
1 -11.5279 3.70712 -15.2547
3 -7.73901 3.7787 -15.2316
2 -3.80943 3.66341 -15.1935
3 0.102238 3.6584 -15.2512
1 3.83885 3.7217 -15.1685
1 7.70101 3.78292 -15.1362
2 11.5187 3.85194 -15.2052
2 15.3563 4.24421 -15.3073
2 -15.2853 7.61155 -15.0781
2 -11.512 7.49877 -15.167
1 -7.63912 7.54093 -15.2966
2 -3.79773 7.54478 -15.1882
2 0.0705852 7.49106 -15.1343
1 3.96106 7.65707 -15.1751
3 7.67997 7.66083 -15.1504
2 11.4945 7.57519 -15.2486
3 15.2013 8.08984 -15.1268
2 -11.395 11.362 -15.2174
2 -7.52805 11.2647 -15.2477
2 -3.7146 11.2871 -15.2201
2 -0.0630751 11.3847 -15.1945
1 3.84686 11.2582 -15.1574
2 7.59804 11.4757 -15.123
1 11.4063 11.4598 -15.1171
2 -7.84052 15.1749 -15.3315
3 -3.7708 15.0543 -15.3187
1 -0.0258731 15.2144 -15.2642
1 3.82436 15.2236 -15.1499
2 7.5874 15.0993 -15.0878
1 -8.04816 -19.058 -11.6417
3 -3.93522 -18.8544 -11.5532
2 0.0101651 -19.0158 -11.3718
2 3.82101 -18.9414 -11.4792
1 8.00605 -18.9473 -11.5881
2 -11.8142 -15.6292 -12.0843
2 -7.77506 -15.1641 -11.4609
2 -3.96419 -15.1088 -11.3693
2 -0.0914135 -15.2208 -11.3534
2 3.86684 -15.129 -11.3329
1 7.56058 -15.1119 -11.3376
2 11.9084 -15.2129 -11.8171
2 -15.2677 -11.3873 -11.4058
3 -11.4818 -11.4352 -11.4153
2 -7.74421 -11.5348 -11.3071
2 -4.05003 -11.4482 -11.3888
2 -0.0242769 -11.4615 -11.3163
3 3.84295 -11.3777 -11.5262
2 7.8201 -11.4419 -11.397
2 11.5759 -11.3644 -11.3253
3 15.2899 -11.3785 -11.2491
1 -19.3295 -8.14646 -11.6326
1 -15.2374 -7.69801 -11.3414
2 -11.5822 -7.45016 -11.4859
2 -7.62056 -7.59106 -11.5559
2 -3.7167 -7.45524 -11.4356
2 -0.11947 -7.56944 -11.353
2 3.84154 -7.53955 -11.372
3 7.75854 -7.57105 -11.4152
3 11.5545 -7.63295 -11.3586
1 15.3873 -7.63815 -11.5025
1 19.1035 -7.63831 -11.3978
2 -19.3933 -4.46959 -11.8804
2 -15.5643 -3.83325 -11.4013
2 -11.5516 -3.73734 -11.5019
3 -7.75658 -3.85084 -11.5615
2 -3.85793 -3.7776 -11.5989
2 0.0849192 -3.71489 -11.537
2 3.7411 -3.80925 -11.4553
1 7.67993 -3.74686 -11.2529
1 11.5936 -3.6759 -11.3765
2 15.4977 -3.71586 -11.2821
1 19.3227 -3.97976 -11.3668
3 -19.3556 -0.187415 -11.4587
1 -15.3666 -0.107877 -11.4806
2 -11.5812 -0.0883652 -11.5443
2 -7.89439 -0.0806525 -11.5411
1 -3.79578 -0.0765424 -11.5167
2 0.0573536 -0.0133636 -11.5433
2 3.87464 0.00221063 -11.394
2 7.57848 -0.0509847 -11.3467
1 11.5903 0.0490575 -11.4884
2 15.1852 -0.0466857 -11.389
1 19.453 -0.02592 -11.6083
3 -19.1779 3.74151 -11.4819
1 -15.3147 3.60838 -11.5539
2 -11.6426 3.66061 -11.5941
1 -7.92005 3.51734 -11.4977
2 -3.79709 3.61546 -11.4066
3 -0.0054115 3.6707 -11.4123
3 3.97409 3.87467 -11.4394
1 7.70454 3.76173 -11.3435
2 11.4373 3.98165 -11.4758
1 15.4529 3.88042 -11.4096
1 18.9626 4.05288 -11.4453
3 -18.891 7.42076 -11.3584
2 -15.3217 7.51303 -11.3611
2 -11.4379 7.52128 -11.4416
1 -7.69084 7.58921 -11.5104
1 -3.87451 7.53867 -11.3109
1 -0.00113648 7.58766 -11.3149
2 3.84801 7.68602 -11.4037
1 7.6458 7.73516 -11.3249
1 11.4655 7.59389 -11.395
3 15.248 7.77351 -11.372
2 18.8475 8.10313 -11.1632
3 -15.2181 11.3849 -11.4786
2 -11.404 11.3874 -11.4961
3 -7.45504 11.395 -11.4276
2 -3.71279 11.3027 -11.4916
2 -0.00743513 11.2745 -11.4822
3 3.92004 11.3438 -11.4589
1 7.60328 11.322 -11.2696
2 11.4285 11.4064 -11.3857
3 15.0859 11.4806 -11.2484
2 -11.4721 15.0256 -11.4043
2 -7.77116 15.0873 -11.3215
2 -3.90911 15.2011 -11.475
2 0.0263384 15.2366 -11.4665
2 3.83653 15.1555 -11.416
1 7.62243 15.2448 -11.3804
3 11.3398 15.1804 -11.4201
2 -7.96879 18.8706 -11.5905
2 -3.8748 18.992 -11.4104
2 -0.0120365 18.9937 -11.3486
3 3.84529 18.9525 -11.4085
3 7.67113 18.7576 -11.311
2 -0.0598503 -22.7688 -7.64149
1 -11.8143 -19.0446 -8.38447
2 -7.77821 -18.9764 -7.63825
2 -3.9528 -19.0045 -7.70973
2 -0.0664947 -19.0728 -7.57873
3 3.87354 -18.9862 -7.83882
2 7.61737 -18.928 -7.54797
2 11.4655 -18.8903 -8.06832
2 -15.3656 -15.3415 -7.9465
2 -11.4724 -15.3405 -7.61307
3 -7.7455 -15.3163 -7.66726
1 -3.92804 -15.1677 -7.66309
3 -0.0622627 -15.163 -7.72159
3 3.83846 -15.0872 -7.74542
3 7.675 -15.1013 -7.58875
1 11.4517 -15.1265 -7.47286
1 15.4301 -15.2834 -7.93954
1 -19.1218 -11.5134 -7.71927
3 -15.3146 -11.4996 -7.62587
2 -11.478 -11.4199 -7.64996
2 -7.69861 -11.4783 -7.66704
3 -3.92779 -11.4639 -7.68891
1 -0.0858706 -11.4351 -7.58765
1 3.8192 -11.3335 -7.71179
2 7.66678 -11.4008 -7.4927
2 11.5096 -11.3196 -7.42505
2 15.2426 -11.2951 -7.47349
2 18.9377 -11.2421 -7.60555
1 -19.1018 -7.8828 -7.64299
1 -15.4035 -7.66954 -7.63196
3 -11.5734 -7.63672 -7.60111
1 -7.82864 -7.57254 -7.5575
2 -3.74689 -7.69571 -7.66897
1 -0.163125 -7.61103 -7.61559
1 3.71311 -7.56784 -7.62657
1 7.75845 -7.68095 -7.50217
2 11.6136 -7.58215 -7.66037
1 15.2586 -7.53853 -7.61993
2 19.0862 -7.69224 -7.56896
2 -19.1279 -3.69823 -7.43218
1 -15.4554 -3.91137 -7.60143
1 -11.6051 -3.78516 -7.55872
2 -7.73722 -3.76828 -7.50116
1 -3.8728 -3.85326 -7.64323
2 0.0574971 -3.82992 -7.5661
1 3.77437 -3.74429 -7.65769
1 7.67593 -3.79595 -7.70675
2 11.5071 -3.70605 -7.48505
3 15.2937 -3.84105 -7.63133
1 19.1323 -3.80139 -7.59546
1 -22.8066 -0.0763326 -7.37206
3 -19.0245 -0.0556326 -7.50844
2 -15.3594 -0.0745767 -7.58686
2 -11.5903 -0.0671869 -7.64269
1 -7.76164 -0.0318019 -7.62639
3 -3.78792 -0.0333658 -7.50932
1 0.0428764 0.116726 -7.71347
2 3.81774 -0.111229 -7.68357
1 7.61816 0.0697412 -7.59939
2 11.5533 -0.0756085 -7.55586
2 15.2414 0.0598434 -7.51263
3 19.0666 -0.00956886 -7.59711
1 22.6719 -0.246658 -7.56254
2 -19.2343 3.70062 -7.62733
2 -15.3602 3.60326 -7.71052
2 -11.644 3.63079 -7.68679
1 -7.73561 3.81046 -7.62411
3 -3.80358 3.82249 -7.71242
2 0.184142 3.81712 -7.67161
3 3.6957 3.79317 -7.43768
1 7.65832 3.70143 -7.47232
1 11.5104 3.92071 -7.60609
2 15.2946 3.88393 -7.58775
2 18.9887 3.92301 -7.49326
2 -19.2169 7.4746 -7.83066
2 -15.3841 7.50479 -7.64311
3 -11.3183 7.59112 -7.56783
1 -7.67783 7.59985 -7.62918
1 -3.68105 7.66765 -7.57338
3 0.0299662 7.58986 -7.62492
1 3.88846 7.6762 -7.5754
3 7.60864 7.72732 -7.48297
3 11.4103 7.77545 -7.57833
3 15.2014 7.71134 -7.49414
1 18.9232 7.75145 -7.66126
2 -19.2612 11.4369 -8.08758
3 -15.3026 11.4857 -7.67896
2 -11.4296 11.557 -7.61605
3 -7.57969 11.3673 -7.70022
3 -3.74526 11.3552 -7.63763
2 0.13136 11.3687 -7.62463
2 3.72375 11.4118 -7.54039
1 7.57567 11.4769 -7.54951
2 11.4855 11.4745 -7.53308
1 15.2522 11.5484 -7.6056
2 18.6862 11.5924 -7.61519
2 -15.3424 15.1371 -8.0129
2 -11.477 14.8939 -7.6415
3 -7.55864 15.2062 -7.64825
1 -3.78214 15.1029 -7.65459
3 -0.147153 15.0771 -7.63064
2 3.8116 15.1098 -7.68101
2 7.64552 15.2493 -7.57078
2 11.3805 15.2558 -7.34827
3 15.1209 15.1938 -7.70434
3 -11.4435 18.5809 -7.80621
3 -7.63689 18.8867 -7.47429
3 -3.85717 19.0941 -7.57663
1 0.0916091 19.0481 -7.60909
2 3.94021 18.9244 -7.54082
1 7.64776 18.9451 -7.45397
1 11.3916 19.1568 -7.5002
1 -0.0773801 22.5476 -7.59262
2 -4.15202 -22.9634 -3.93015
2 0.046663 -22.7801 -3.73397
1 3.69785 -22.5233 -3.91715
2 -11.9595 -19.2724 -3.91792
2 -7.83688 -19.2935 -3.85492
1 -3.96215 -19.0301 -3.79733
2 -0.0382964 -19.0073 -3.80928
3 3.69632 -19.0629 -3.95859
1 7.56565 -18.9311 -3.80546
2 11.5805 -19.0549 -3.83081
2 -15.4136 -15.4349 -3.73974
2 -11.4653 -15.2711 -3.84824
2 -7.66258 -15.1095 -3.78535
2 -3.92681 -15.157 -3.89273
1 -0.0231833 -15.242 -3.76652
1 3.74235 -15.2082 -3.84035
1 7.6898 -15.1773 -3.7628
2 11.444 -15.1732 -3.80098
3 15.3909 -15.2962 -3.81131
3 -19.1824 -11.5423 -3.80964
3 -15.2892 -11.5223 -3.78883
1 -11.53 -11.5618 -3.85987
2 -7.67975 -11.3711 -3.94636
1 -3.87367 -11.4549 -3.8097
2 -0.07322 -11.5561 -3.79346
2 3.74215 -11.4736 -3.81866
3 7.62557 -11.3701 -3.78552
1 11.3627 -11.3911 -3.80393
1 15.3488 -11.4521 -3.76813
1 19.0092 -11.5263 -3.74062
2 -19.1968 -7.77708 -3.78943
2 -15.342 -7.61908 -3.85225
1 -11.5683 -7.89974 -3.80022
2 -7.69727 -7.8976 -3.92727
2 -3.81812 -7.73451 -3.83611
3 -0.0577919 -7.59245 -3.68099
3 3.85225 -7.62685 -3.79079
2 7.77786 -7.58407 -3.80123
3 11.5261 -7.46285 -3.80314
3 15.2902 -7.48382 -3.83002
2 18.9599 -7.72258 -3.72788
3 -22.7581 -4.05564 -3.7532
3 -19.1127 -3.94707 -3.66508
2 -15.324 -4.01874 -3.72889
3 -11.5188 -3.87231 -3.83746
3 -7.74274 -3.83392 -3.73684
2 -3.87353 -3.93593 -3.82117
2 0.0105022 -3.85085 -3.8802
3 3.72582 -3.75712 -3.71944
2 7.70874 -3.83338 -3.64639
1 11.4149 -3.71815 -3.7019
3 15.3063 -3.75042 -3.73618
1 19.2459 -3.7975 -3.75671
2 22.916 -3.80958 -3.82958
1 -22.7188 -0.173274 -3.84398
2 -19.1494 -0.00848224 -3.72912
3 -15.2217 -0.0541875 -3.79997
2 -11.5006 0.0446083 -3.75965
1 -7.57372 -0.0925559 -3.7218
1 -3.89832 -0.0828289 -3.78121
2 -0.0553842 -0.130084 -3.74208
3 3.86527 -0.0336932 -3.74826
3 7.5535 -0.0459824 -3.59795
2 11.4793 0.0895656 -3.8141
3 15.3867 -0.0242994 -3.79893
2 18.9793 0.0791675 -3.818
2 23.0463 0.0425228 -3.68221
3 -22.7818 3.79479 -3.89437
1 -19.1729 3.70352 -3.79245
3 -15.2955 3.8532 -3.83714
2 -11.3754 3.73152 -3.89911
3 -7.63616 4.00555 -3.72213
2 -3.74582 3.8445 -3.74439
1 -0.0497097 3.73768 -3.64781
1 3.76931 3.86213 -3.69588
1 7.63043 3.80788 -3.77284
2 11.6181 3.85935 -3.79495
2 15.2258 3.84356 -3.6798
2 19.2171 3.99505 -3.81052
2 22.5726 3.96638 -4.14871
2 -19.0056 7.50911 -3.73495
2 -15.4168 7.58208 -3.83888
2 -11.5011 7.58055 -3.89223
2 -7.65072 7.59066 -3.77798
1 -3.67163 7.48412 -3.71909
3 0.0262324 7.702 -3.66208
3 3.81727 7.58022 -3.67024
2 7.51493 7.54743 -3.74071
2 11.5215 7.59764 -3.72836
2 15.2435 7.70328 -3.75831
3 19.2424 7.94624 -3.68877
1 -19.4091 11.6323 -4.10241
2 -15.0974 11.1792 -3.77599
3 -11.3601 11.411 -3.90498
3 -7.59884 11.4325 -3.76491
3 -3.7988 11.3691 -3.7267
2 0.101364 11.4699 -3.82538
2 3.93623 11.4125 -3.69341
2 7.48974 11.497 -3.77349
2 11.4132 11.4691 -3.80936
2 15.1637 11.5138 -3.84812
1 19.3552 12.0557 -4.05925
3 -15.3389 15.2395 -3.95195
2 -11.4245 15.0577 -3.91172
2 -7.57097 15.0403 -3.87531
2 -3.72667 14.9873 -3.83324
2 0.0481239 15.0231 -3.71565
2 3.85202 15.1762 -3.75458
3 7.57871 15.1736 -3.85734
1 11.4353 15.2313 -3.79404
3 15.1476 15.3705 -3.76194
2 -11.9447 19.2883 -4.10661
2 -7.65237 18.8863 -3.86126
2 -3.73587 18.858 -3.79959
2 0.0205677 18.8486 -3.94051
1 3.86102 18.9151 -3.86665
3 7.54727 18.9469 -3.83634
1 11.6677 19.4008 -3.96852
3 -3.84148 22.548 -3.79602
1 -0.00370136 23.0402 -3.53697
2 4.04053 22.8145 -3.77867
1 -7.60764 -22.6718 -0.0608509
1 -3.82154 -22.768 0.0475808
2 -0.0160406 -22.6106 -0.179774
3 3.7182 -22.7807 0.0747534
3 7.22392 -22.5321 0.0529375
3 -11.577 -19.0084 0.0415672
2 -7.6925 -19.1053 0.057546
2 -3.90247 -18.9744 0.00767064
3 0.0223055 -18.9659 0.0228638
2 3.69606 -18.9878 -0.0623607
2 7.4452 -19.0504 0.0429681
2 11.2715 -18.9527 -0.0211361
2 -15.3547 -15.3068 -0.219372
2 -11.762 -15.5047 -0.0874326
2 -7.59805 -15.3049 0.0702892
1 -3.82448 -15.2316 -0.0391684
3 -0.149006 -15.2029 0.0127598
1 3.7929 -15.1383 0.0102196
2 7.63734 -15.1342 -0.0380772
2 11.4443 -15.3885 -0.0504666
2 15.2825 -15.2268 -0.0115998
2 -19.2812 -11.4708 0.0553305
1 -15.2998 -11.506 -0.117046
2 -11.6015 -11.5325 -0.0581417
2 -7.7479 -11.4409 -0.0572484
1 -3.88253 -11.5207 0.0156223
2 0.0417885 -11.4752 0.0467183
2 3.69644 -11.3557 0.0357049
3 7.58209 -11.4332 -0.0441006
1 11.3842 -11.3189 0.0579695
1 15.3017 -11.4651 -0.0410285
3 18.9987 -11.3454 0.209566
2 -22.8658 -7.64527 -0.00544152
2 -18.8432 -7.64552 0.0975727
3 -15.3372 -7.68681 -0.0339388
2 -11.5115 -7.74231 0.000163063
2 -7.79264 -7.65173 0.0688265
3 -3.82315 -7.58071 -0.0300492
2 -0.0961508 -7.65306 0.0361548
2 3.8348 -7.69201 0.022812
2 7.56293 -7.57111 0.132156
1 11.4381 -7.55606 0.0352818
3 15.4303 -7.71096 0.0351124
2 18.9698 -7.71815 0.0595669
2 22.9126 -7.35813 0.105071
2 -22.8153 -3.9897 0.117729
3 -19.1924 -4.02471 -0.0119079
3 -15.3044 -3.90693 -0.0608379
3 -11.3637 -3.86828 -0.0279527
1 -7.73303 -3.88656 0.065958
2 -3.87496 -3.85745 -0.00340975
2 0.11155 -3.82806 0.125207
1 3.81606 -3.74543 0.0891345
2 7.66573 -3.82638 0.0836215
3 11.6117 -3.87044 0.013327
1 15.3216 -3.76449 0.191742
3 19.0297 -3.73095 0.030521
1 22.749 -3.80821 0.127838
2 -22.95 -0.0393699 0.232726
1 -19.166 -0.0503361 0.0239372
2 -15.2664 0.0545695 -0.0281475
1 -11.5378 -0.0857415 -0.0955382
1 -7.65242 -0.0937631 -0.00942635
2 -3.7593 -0.0795414 0.0108347
2 0.050827 0.0504258 0.0908523
3 3.90203 0.121278 0.0998167
1 7.70044 -0.0155989 0.0451821
1 11.5036 -0.0124866 -0.0532167
3 15.3082 0.0843972 -0.0157475
2 19.1342 0.0354202 0.10361
3 22.8748 0.123411 -0.184721
2 -22.8043 3.83852 -0.0194119
1 -19.0211 3.78295 -0.0759876
2 -15.3181 3.61366 0.0830696
3 -11.4634 3.6986 -0.177702
2 -7.67258 3.7354 0.0289583
3 -3.78863 3.8517 0.0804999
2 0.143476 3.82261 -0.0259703
2 3.90317 3.87667 -0.00638985
2 7.7585 3.86354 0.0552985
2 11.3993 3.70138 -0.0647702
1 15.3344 3.77771 -0.0186134
1 19.0841 3.85963 0.0140819
3 22.9772 3.89291 -0.0709154
1 -22.7106 7.75046 -0.0630315
3 -18.9684 7.58673 0.0100871
3 -15.1895 7.61433 -0.0933731
2 -11.3437 7.72036 -0.0570215
1 -7.57393 7.56812 -0.0410318
1 -3.64117 7.55811 -0.0378046
3 0.097202 7.60123 0.0505648
2 3.83857 7.62394 -0.0114715
3 7.63446 7.60111 -0.013063
1 11.443 7.62943 -0.0647628
3 15.3762 7.71085 0.0550677
2 19.2498 7.7923 -0.0481947
2 22.8764 7.55289 0.0740919
3 -18.9754 11.4451 0.0943488
1 -15.184 11.4368 -0.0540049
2 -11.4455 11.3574 -0.047806
3 -7.5312 11.3773 -0.0448755
2 -3.62949 11.3681 0.0542015
2 0.0359905 11.3804 0.0709677
3 3.75544 11.3688 -0.0980539
3 7.74637 11.4664 -0.0698871
1 11.3838 11.5957 -0.058061
2 15.2389 11.5815 0.0645934
2 19.2873 11.7757 0.127407
2 -15.1382 15.0279 0.119068
3 -11.5642 15.2186 -0.026716
3 -7.63861 15.1395 -0.0599248
3 -3.73607 15.0413 0.147736
2 0.00756456 15.1634 0.0208353
3 3.75152 15.1977 0.0539968
2 7.63811 15.2335 -0.0419679
3 11.3655 15.2502 0.0507305
3 15.096 15.335 0.0337285
2 -11.6354 19.1815 -0.0911555
3 -7.77957 19.0019 0.0371533
3 -3.83934 18.9281 0.0525955
1 -0.121988 19.0272 0.0658076
1 3.8302 18.9335 -0.126418
3 7.64545 18.822 -0.0464667
3 11.4063 19.0519 0.0255197
2 -7.65105 22.6067 0.103057
3 -3.84138 22.592 0.145471
1 0.094898 22.7671 -0.0113711
3 3.82009 22.7548 0.016346
2 7.46395 22.5998 0.102449
1 -3.87384 -22.6992 3.87395
1 0.0431286 -22.6912 3.66697
1 3.65197 -22.6146 3.8048
2 -11.5827 -18.9449 3.80182
1 -7.75424 -19.0345 3.73403
2 -3.82045 -18.8586 3.71097
2 0.0409855 -19.0643 3.70426
1 3.73597 -19.0462 3.89632
3 7.61835 -18.9901 3.79489
2 11.3477 -19.0656 3.88743
1 -16.4285 -16.2459 4.04613
2 -11.6343 -15.3542 3.86051
1 -7.7856 -15.3163 3.79693
3 -3.77227 -15.2318 3.91357
2 -0.119322 -15.2362 3.80816
2 3.71393 -15.2429 3.78852
2 7.49664 -15.1988 3.80465
2 11.4672 -15.1093 3.76858
2 15.2565 -15.3502 3.73797
2 -19.0889 -11.6795 3.8757
1 -15.3211 -11.4955 3.80034
2 -11.4779 -11.5802 3.77069
2 -7.81213 -11.4157 3.72443
2 -3.89612 -11.445 3.7938
1 -0.110306 -11.3855 3.80433
3 3.72597 -11.4637 3.78226
2 7.46763 -11.4053 3.80136
2 11.4641 -11.4432 3.74479
2 15.1654 -11.3633 3.68535
2 20.3511 -11.729 5.26286
3 -19.0086 -7.61184 3.93554
1 -15.3379 -7.60715 3.91166
2 -11.5853 -7.60449 3.81144
2 -7.66261 -7.708 3.88563
3 -3.92332 -7.59337 3.93561
2 -0.0314599 -7.54238 3.93754
3 3.86181 -7.53756 3.79195
1 7.60037 -7.5369 3.82838
1 11.3544 -7.52297 3.88357
1 15.3032 -7.59353 3.69822
2 19.301 -7.59057 3.94006
1 -22.7953 -3.89278 3.74846
2 -19.2333 -3.95994 3.82169
2 -15.3228 -3.86078 3.736
2 -11.3932 -3.76209 3.7823
1 -7.67684 -3.72811 3.82417
1 -3.71117 -3.73715 3.79315
1 0.0518091 -3.70386 3.91415
3 3.83708 -3.76274 3.86535
2 7.60319 -3.87753 3.77008
2 11.4316 -3.78884 3.88165
3 15.2951 -3.69016 3.76739
2 19.197 -3.64963 3.95783
2 22.9986 -3.76344 3.80162
2 -22.9559 -0.0071968 3.90103
3 -19.1219 -0.0915218 3.91668
2 -15.242 -0.0528398 3.71447
2 -11.5479 -0.0766384 3.8005
2 -7.73915 -0.0166773 3.84412
2 -3.87739 0.142011 3.90376
2 0.0530931 0.0955356 3.68594
2 3.93574 0.13393 3.67864
2 7.65961 0.0885983 3.77479
3 11.5105 0.0785066 3.80235
1 15.282 0.13175 3.79359
2 18.8967 0.0289186 3.86915
2 22.8747 0.265556 3.69695
3 -22.7694 3.75944 3.95701
1 -19.04 3.77777 3.70873
2 -15.3319 3.72239 3.64908
1 -11.5092 3.74682 3.7323
1 -7.55809 3.8136 3.80972
1 -3.73037 3.80054 3.80737
3 0.113786 3.7581 3.74958
3 3.84634 3.72587 3.73108
2 7.66316 3.80845 3.83548
2 11.3586 4.0066 3.77856
3 15.3031 3.79748 3.72934
2 19.0814 3.91483 3.74136
3 22.8152 3.83835 3.89168
2 -19.0206 7.50559 3.76501
3 -15.2015 7.65666 3.72561
1 -11.4617 7.58315 3.7457
3 -7.52487 7.54641 3.79754
1 -3.66028 7.66735 3.76739
2 0.240437 7.56959 3.71937
3 3.77833 7.65052 3.79911
3 7.56952 7.6814 3.8831
1 11.4714 7.68125 3.78745
3 15.3533 7.71109 3.85605
1 19.0113 7.81912 3.6985
2 -19.0305 11.3905 4.01324
3 -15.1851 11.4144 3.77272
3 -11.367 11.3523 3.67716
3 -7.5179 11.2664 3.8506
1 -3.70164 11.409 3.86918
2 0.147556 11.3945 3.89278
3 3.88518 11.4168 3.83161
2 7.49124 11.4008 3.80849
1 11.5167 11.4681 3.87622
1 15.2327 11.5624 3.68072
2 19.02 11.5108 3.73727
2 -15.4209 15.4538 3.77829
2 -11.3557 15.0353 3.74645
2 -7.62545 15.069 3.73556
2 -3.74948 15.1451 3.81135
3 0.103081 15.215 3.7846
1 3.78714 15.2528 3.775
2 7.64697 15.1799 3.66676
1 11.339 15.2855 3.75025
3 15.2361 15.3185 3.81963
2 -11.7831 19.0951 4.01834
2 -7.71264 18.979 3.94037
2 -3.68247 18.8875 3.86594
2 -0.157907 18.9115 3.74969
2 3.84013 19.0635 3.97463
3 7.71095 18.9577 3.76079
2 11.5788 19.0045 4.05377
3 -3.84135 22.6747 3.84677
3 0.0137015 22.7826 3.67947
2 3.82394 22.7048 3.75241
2 -0.130527 -22.6456 7.69995
2 -11.4922 -18.8886 7.82708
2 -7.80812 -19.0225 7.66344
2 -3.98395 -18.9942 7.55872
3 -0.084107 -19.083 7.64529
1 3.78105 -18.9997 7.67811
3 7.67242 -18.9265 7.52968
2 11.423 -18.9551 7.64349
3 -15.1981 -14.9631 7.70547
3 -11.4609 -15.3199 7.65144
2 -7.72964 -15.3755 7.70334
3 -3.80261 -15.348 7.57814
2 -0.13732 -15.1865 7.50275
2 3.7577 -15.2347 7.53984
3 7.53849 -15.2095 7.65254
2 11.3567 -15.2305 7.45058
3 15.118 -15.1863 7.52221
1 -19.0013 -11.6229 7.68696
2 -15.2932 -11.4885 7.76915
3 -11.4411 -11.4874 7.63558
1 -7.71609 -11.4676 7.59384
2 -3.82326 -11.5172 7.80223
1 -0.0664028 -11.4401 7.65259
2 3.7197 -11.375 7.56445
2 7.45204 -11.3645 7.54317
2 11.6145 -11.3611 7.49662
3 15.2039 -11.4341 7.61205
3 18.9185 -11.239 7.4511
1 -19.0011 -7.70012 7.65471
2 -15.2442 -7.63433 7.76491
2 -11.3625 -7.66671 7.69607
2 -7.61209 -7.67662 7.5893
2 -3.87001 -7.53629 7.78817
2 -0.0186613 -7.57421 7.67772
2 3.90219 -7.55063 7.6628
2 7.65044 -7.50069 7.59431
2 11.4538 -7.67275 7.43822
3 15.3397 -7.6541 7.55965
1 19.2764 -7.52094 7.43538
2 -19.1354 -3.96212 7.72498
2 -15.1509 -3.85338 7.6203
1 -11.3991 -3.74736 7.58507
2 -7.64142 -3.69591 7.64047
1 -3.74861 -3.74895 7.62053
1 0.0978067 -3.7275 7.61557
1 3.80999 -3.84063 7.65117
2 7.63327 -3.58681 7.56871
2 11.4593 -3.73822 7.51449
2 15.2547 -3.81413 7.48402
3 19.1353 -3.64344 7.49354
1 -22.6522 -0.128508 7.65463
2 -18.896 -0.0628461 7.62621
1 -15.1825 0.0389751 7.61563
2 -11.514 -0.0089159 7.64378
2 -7.65749 0.0372937 7.66904
3 -3.78423 -0.0538395 7.58963
2 0.0397165 0.00678777 7.65201
2 3.74001 0.08728 7.57249
3 7.72207 0.0083531 7.58204
2 11.5067 0.0568376 7.46099
1 15.2755 0.0856799 7.59382
1 19.0066 0.183566 7.64867
3 22.6177 0.188897 7.51849
2 -19.0083 3.7127 7.39463
2 -15.2527 3.7448 7.63135
1 -11.2455 3.80264 7.71826
3 -7.59708 3.79894 7.60129
2 -3.72248 3.80921 7.74646
1 0.021273 3.80083 7.69968
2 3.80347 3.87008 7.68708
3 7.6148 3.72083 7.61918
2 11.5215 3.93017 7.5578
2 15.2264 3.87573 7.56665
1 19.0526 3.88895 7.65615
2 -18.7622 7.62538 7.38973
1 -15.1818 7.45674 7.40883
2 -11.4293 7.69079 7.41001
1 -7.52827 7.63062 7.58542
2 -3.71923 7.54633 7.72675
1 0.058767 7.60562 7.66898
2 3.77006 7.57075 7.74652
2 7.66674 7.64263 7.54649
3 11.3773 7.66257 7.57613
2 15.1712 7.68288 7.59962
2 18.8833 7.77593 7.61468
2 -18.9296 11.2929 7.59127
3 -15.1259 11.4186 7.57414
2 -11.3982 11.2562 7.62548
2 -7.58808 11.3664 7.52219
1 -3.75148 11.5123 7.6337
3 0.122965 11.5097 7.72348
1 3.74141 11.567 7.61292
2 7.60047 11.5129 7.61989
1 11.4755 11.3571 7.68685
3 15.1801 11.4645 7.69539
1 18.7558 11.3392 7.65858
2 -15.3312 15.0766 7.85621
3 -11.353 15.1685 7.6411
2 -7.56529 15.1378 7.67856
1 -3.68298 15.1457 7.6714
3 0.0777579 15.2141 7.58995
1 3.89473 15.2912 7.60891
1 7.54303 15.2505 7.45393
1 11.7432 15.4117 7.75292
2 15.0766 15.1569 7.60854
1 -11.4145 18.637 7.84929
2 -7.64959 18.9106 7.56481
2 -3.65694 18.9931 7.78184
1 0.010977 19.3694 7.60499
2 3.91402 19.0496 7.665
2 7.73349 18.9422 7.56501
2 11.3228 18.9497 7.86087
3 0.00863035 22.5481 7.52758
2 -7.74825 -18.862 11.5255
3 -3.95329 -19.0303 11.5002
3 -0.0112536 -18.988 11.3462
3 3.74346 -18.8422 11.5722
1 7.79932 -18.935 11.3615
3 -11.4575 -15.1483 11.5009
1 -7.66122 -15.3098 11.4554
3 -3.84569 -15.116 11.4525
2 -0.14991 -15.262 11.377
2 3.63885 -15.1819 11.3104
2 7.46974 -15.4001 11.3406
3 11.3685 -15.1448 11.2016
1 -15.3584 -11.548 11.5337
1 -11.4742 -11.3912 11.5445
2 -7.67922 -11.343 11.4199
2 -3.86155 -11.3826 11.4877
2 0.0137196 -11.4092 11.5759
2 3.73921 -11.3323 11.3407
2 7.56476 -11.4431 11.4047
2 11.517 -11.4362 11.4426
1 15.5285 -11.6535 11.5563
2 -18.9225 -7.98333 11.3833
2 -15.255 -7.48411 11.5213
2 -11.3697 -7.74601 11.443
3 -7.68142 -7.61605 11.4646
1 -3.7707 -7.63296 11.4133
3 -0.0565805 -7.45443 11.4307
1 3.89569 -7.62324 11.351
2 7.60408 -7.53268 11.499
3 11.4463 -7.60906 11.332
1 15.3102 -7.65042 11.404
3 19.0949 -7.69469 11.0073
2 -18.9994 -3.90139 11.3866
2 -15.2526 -3.85775 11.5314
2 -11.3719 -3.68046 11.4041
3 -7.69926 -3.69788 11.4166
3 -3.83229 -3.78036 11.4005
1 0.0802801 -3.82529 11.4774
3 3.68554 -3.81096 11.3025
1 7.64399 -3.76799 11.354
3 11.4253 -3.72424 11.3529
3 15.3381 -3.84045 11.2874
3 19.2575 -3.82235 11.2283
3 -19.2312 -0.00332798 11.4382
1 -15.257 0.0961103 11.3059
1 -11.4824 0.0568668 11.4118
3 -7.66694 0.00680649 11.4916
2 -3.80537 -0.04022 11.4992
2 -0.0225996 -0.0800145 11.4917
1 3.77199 0.0842434 11.5411
2 7.57505 0.0631066 11.4636
2 11.4187 -0.00281079 11.3312
2 15.2429 0.084915 11.4092
3 19.1062 0.0888637 11.3152
2 -19.0579 4.02207 11.5033
1 -15.2364 3.95449 11.3608
2 -11.4947 3.66267 11.3745
1 -7.58599 3.75009 11.3621
2 -3.86833 3.67635 11.3777
3 -0.028788 3.78549 11.5168
2 3.86849 3.96366 11.4524
2 7.56921 3.88075 11.3905
3 11.425 3.83325 11.4072
3 15.2691 3.93533 11.3487
2 18.9395 3.77507 11.3788
1 -19.0368 7.91537 11.6226
2 -15.2259 7.68536 11.329
3 -11.5369 7.5113 11.171
1 -7.49504 7.6428 11.2833
2 -3.71354 7.52415 11.4051
2 0.0200188 7.60189 11.4322
2 3.77219 7.64213 11.3339
2 7.68219 7.56121 11.3292
1 11.3709 7.63066 11.4678
3 15.2155 7.6727 11.3265
2 18.8004 7.94649 11.608
3 -15.1058 11.42 11.4131
2 -11.2314 11.2666 11.1977
3 -7.5564 11.3507 11.3541
3 -3.81057 11.4636 11.445
2 0.0258411 11.3524 11.5034
2 3.76485 11.4626 11.4702
3 7.65385 11.4712 11.4114
1 11.3937 11.5957 11.2898
2 15.1426 11.3591 11.375
1 -11.5169 15.3274 11.7017
2 -7.64488 15.1118 11.5959
3 -3.76226 15.1299 11.4865
1 -0.0545719 15.3154 11.5989
2 3.79439 15.2174 11.6884
2 7.72805 15.459 11.6179
1 11.8816 15.6693 11.9838
3 -7.63007 18.7694 11.3102
2 -4.16148 19.5435 11.7646
1 -0.0407828 19.1129 11.6926
2 3.76175 18.9462 11.8276
1 7.78918 18.9328 11.6918
1 -7.76805 -15.1466 15.2032
2 -3.79091 -15.2426 15.285
2 -0.190431 -15.1053 15.3069
1 3.76481 -15.4322 15.5805
1 7.75251 -15.3376 15.0891
2 -11.5448 -11.6052 15.1869
3 -7.51001 -11.3289 15.1667
3 -3.90924 -11.4253 15.2805
2 -0.0179621 -11.5994 15.231
1 3.68142 -11.3978 15.1975
2 7.8061 -11.597 15.204
3 11.4729 -11.4178 15.0411
3 -15.2333 -7.80522 15.2284
3 -11.4889 -7.7529 15.3468
2 -7.63347 -7.55174 15.1423
1 -3.76349 -7.56696 15.3053
2 -0.0198001 -7.69048 15.0832
2 3.75022 -7.74337 15.2432
2 7.63615 -7.74852 15.1392
3 11.41 -7.64211 15.1979
3 15.432 -7.72141 15.0218
2 -15.6407 -3.86837 15.4812
2 -11.3937 -3.82421 15.2411
3 -7.64149 -3.75534 15.1593
3 -3.71009 -3.81341 15.3099
3 0.155332 -3.70678 15.224
2 3.95031 -3.67985 15.1894
1 7.68287 -3.81917 15.3339
2 11.6663 -3.88821 15.3057
3 15.348 -3.8818 15.1791
2 -15.3623 0.169236 15.2063
2 -11.4896 0.0912745 15.1751
2 -7.59378 -0.0141784 15.1994
2 -3.78288 0.0497088 15.2362
2 -0.0559475 0.152041 15.3359
1 3.87143 0.00742937 15.1851
1 7.67255 0.0804062 15.2118
1 11.5197 0.163094 15.1779
3 15.2049 -0.00397554 14.8727
3 -15.1732 3.89874 15.1489
2 -11.4662 3.82573 15.1391
1 -7.58985 3.81733 15.1747
2 -3.68934 3.82086 15.2138
2 0.0314795 3.83248 15.2825
3 3.72455 3.80654 15.25
2 7.59298 3.72846 15.2002
1 11.464 3.78605 15.0546
3 15.4284 3.88882 15.1606
1 -15.1387 7.91258 15.2421
3 -11.3461 7.63655 15.0528
2 -7.43322 7.56922 15.1816
1 -3.82482 7.51296 15.1057
2 0.0312058 7.52268 15.2177
2 3.841 7.65192 15.3548
1 7.63072 7.64005 15.1436
3 11.5139 7.59496 15.1344
1 15.1155 7.87136 15.2255
1 -11.4466 11.5881 15.4237
2 -7.56998 11.3632 15.3487
3 -3.66739 11.3 15.247
2 -0.0875062 11.4247 15.2466
2 3.91236 11.4848 15.3122
1 7.7612 11.3228 15.2205
3 11.4289 11.4549 15.0813
2 -7.70332 14.9271 15.3317
2 -3.74674 15.1267 15.501
2 -0.0302497 15.2573 15.3214
2 3.59804 15.165 15.4139
3 7.57493 15.181 15.3678
2 -7.64432 -11.4798 18.9813
3 -3.88866 -11.3436 19.0362
2 -0.209175 -11.3638 19.0465
2 3.95119 -11.4642 19.2059
2 7.95226 -11.5088 18.903
2 -11.3507 -7.89366 18.8762
2 -7.53791 -7.40679 19.1948
1 -3.89623 -7.60038 19.0727
2 0.0608846 -7.64981 19.1564
2 4.05207 -7.6153 19.0238
2 7.80774 -7.64118 18.9991
3 11.7204 -7.75443 18.9338
2 -11.5428 -3.85153 19.0375
2 -7.69161 -3.81896 19.0601
1 -3.86932 -3.79191 19.0641
3 0.172846 -3.71689 18.997
2 3.91999 -3.75919 19.0991
2 7.87486 -3.79796 19.1957
2 12.0703 -4.10375 20.0698
1 -11.7409 0.190742 19.301
2 -7.73428 0.0715809 19.1298
3 -3.84004 0.00195175 19.1311
2 0.217902 0.0669047 18.9556
2 3.83087 0.0234684 19.0109
2 7.60211 0.13242 19.0521
2 11.6521 0.216254 19.1298
2 -11.6166 4.03772 19.032
2 -7.61334 3.77979 18.9706
3 -3.88827 3.78297 19.0025
2 0.0996842 3.89631 18.9783
3 3.86973 3.78659 18.919
2 7.51914 3.77648 19.0598
2 11.6171 3.91019 18.9799
3 -11.4127 7.63761 18.7027
3 -7.6069 7.42927 18.8797
3 -3.9 7.55906 18.9265
3 -0.102232 7.46341 19.0571
2 3.74267 7.59324 19.0154
3 7.56751 7.62549 19.0904
1 11.2931 7.67775 18.8997
2 -7.6283 11.1127 18.9072
1 -3.84896 11.1675 19.0591
3 -0.129339 11.2727 19.0339
2 3.81165 11.3371 19.1184
1 7.41278 11.4427 19.3698
2 0.155661 -7.42982 22.5077
1 -3.77156 -3.83095 22.668
2 -0.0725512 -3.64949 22.8465
2 3.87433 -3.79237 22.7547
2 -7.61115 0.194811 22.7355
1 -3.86474 0.0116877 22.6532
2 0.0135555 0.0688156 22.7143
2 3.86731 0.147165 22.627
2 7.65362 0.183492 22.7346
2 -3.97278 3.89336 22.8618
3 0.0395179 3.73159 22.7281
3 3.82419 3.77661 22.6276
2 0.0248176 7.50919 22.7781
2 -5.68322 -5.47632 -22.8481
3 -1.76119 -5.68595 -22.7915
2 2.01125 -5.65582 -22.9273
2 6.12568 -5.65179 -22.5087
3 -5.50342 -1.91315 -22.762
3 -1.61069 -1.8907 -22.8259
3 2.27023 -2.18316 -22.7861
1 5.86923 -1.8706 -22.5998
1 -5.70429 2.44329 -22.4491
3 -1.49993 2.00257 -22.6926
2 2.07619 1.84021 -22.5739
1 5.77001 2.01857 -22.7047
1 -5.69893 5.02181 -21.8665
1 -1.71097 5.74849 -22.76
2 2.06412 5.71157 -22.6234
1 5.87385 5.4739 -22.3748
2 -5.89094 -13.0356 -18.9011
1 -1.78331 -13.186 -18.9159
1 1.96556 -13.2412 -18.8831
2 5.89627 -13.1895 -18.8538
2 -9.93546 -9.72478 -19.3368
2 -5.65786 -9.64001 -19.1927
3 -1.82487 -9.55103 -19.0336
3 2.00959 -9.40138 -19.0324
1 5.83588 -9.4836 -18.9144
2 9.87064 -9.82625 -18.9947
1 -13.7762 -6.13893 -18.6216
2 -9.64473 -5.66737 -19.1952
3 -5.69678 -5.63898 -19.088
1 -1.84774 -5.81694 -19.0977
1 2.07258 -5.7622 -19.0088