4321
 Atoms. Timestep: 14975
2 0.359723 -7.91898 -22.9081
2 -3.71041 -4.03891 -23.0218
1 -0.0291948 -3.90521 -22.8012
1 4.07051 -3.93404 -23.0871
2 -7.90109 -0.74435 -22.5148
3 -3.75119 -0.328045 -22.8303
1 0.228491 0.0966799 -22.7391
2 3.61309 -0.0511367 -22.9915
1 7.53027 0.0752648 -22.9849
1 -3.76564 3.63555 -23.0244
3 0.191545 4.00128 -22.8593
2 3.98463 3.785 -22.7561
1 -0.459625 7.70878 -22.1063
1 -8.06736 -11.6647 -18.924
2 -3.54308 -11.5172 -18.8823
3 0.314477 -11.4402 -18.9234
2 3.62562 -11.2398 -18.9823
2 7.7153 -11.675 -19.1833
2 -11.9229 -7.64559 -19.0423
1 -7.21719 -7.85337 -19.2482
1 -3.65006 -7.77161 -19.042
3 0.0130071 -7.6817 -18.9783
3 3.76672 -7.62868 -19.1398
3 7.57705 -7.54984 -18.9686
2 11.3042 -7.47653 -18.9922
2 -11.9874 -4.97981 -19.6832
3 -7.52974 -4.11077 -18.969
3 -3.73339 -3.89608 -19.2009
1 -0.0463299 -3.68784 -18.9643
1 3.89395 -3.82577 -19.0195
2 7.53147 -3.77234 -19.0565
3 11.5174 -3.56848 -19.1774
2 -12.4955 -0.405804 -19.6526
3 -7.72912 -0.290194 -19.1633
2 -3.91424 -0.169681 -19.2457
2 0.135298 0.137972 -19.0158
3 3.78582 0.151446 -18.957
3 7.64974 0.274827 -19.2097
2 11.6182 0.494645 -19.2111
3 -11.7576 3.77169 -18.8925
2 -7.60483 3.63317 -19.6539
1 -4.08353 3.55512 -19.2816
1 -0.00172242 3.83565 -18.9628
3 3.99067 3.95418 -19.2175
2 7.68331 3.97653 -19.2452
2 11.4538 3.88431 -19.0763
3 -11.9826 7.72376 -18.9599
2 -7.49331 7.65284 -19.1487
2 -3.91833 7.69608 -19.2046
1 0.161042 7.55152 -19.2279
3 4.08078 7.88433 -19.178
1 7.91286 7.93746 -19.307
2 13.6999 8.95595 -19.7233
1 -7.6817 11.374 -19.0588
2 -3.89867 11.489 -19.1845
1 0.16595 12.0705 -19.4436
3 3.89188 11.5476 -18.967
3 7.56637 11.4451 -18.7787
3 -7.49335 -15.5313 -15.1601
1 -3.60102 -15.7348 -15.7987
3 0.144269 -15.3854 -15.2427
3 3.90383 -15.4463 -15.2728
1 7.74662 -15.3581 -14.9649
2 -12.0973 -12.067 -15.6692
1 -7.88337 -11.4267 -15.4252
3 -3.76802 -11.6568 -15.0629
3 0.0893813 -11.6578 -15.0232
3 3.82721 -11.4571 -15.1786
1 7.90601 -11.6621 -15.3663
1 11.8035 -11.7556 -15.8724
2 -15.8371 -8.74688 -15.7234
2 -11.7431 -7.93806 -15.4023
2 -7.68561 -7.70959 -15.2606
2 -3.58698 -7.77907 -15.1764
3 -0.149015 -7.68993 -15.1996
3 3.85951 -7.76014 -15.3019
2 7.59898 -7.81162 -15.3949
1 11.4473 -7.84503 -15.3638
2 15.249 -7.56101 -15.4464
2 -16.3276 -4.32382 -15.9017
3 -11.7034 -3.89694 -15.3801
1 -7.49327 -3.92427 -15.3709
1 -3.83925 -3.89744 -15.303
2 -0.0033793 -3.77627 -15.4299
2 3.74599 -3.84209 -15.1966
3 7.6136 -3.91727 -15.3318
1 11.6149 -3.72527 -15.2655
1 15.5858 -3.69146 -15.747
1 -15.6888 0.0784727 -15.305
1 -11.6877 -0.183651 -15.3137
1 -7.66648 -0.169341 -15.3288
2 -3.84662 -0.190447 -15.4328
3 0.224746 -0.0834228 -15.1708
2 3.83987 0.0401508 -15.3091
3 7.42966 -0.00504348 -15.3717
1 11.522 0.104698 -15.4321
2 15.2158 0.211254 -15.2408
3 -15.2727 3.94903 -15.3459
1 -11.6275 3.79575 -15.3922
3 -7.69319 3.78577 -15.4222
2 -3.73633 3.77121 -15.5414
3 0.207147 3.92492 -15.2523
1 3.89478 3.79301 -15.3133
1 7.46956 3.79516 -15.1931
2 11.3929 3.76466 -15.3876
2 15.3007 3.99597 -15.2582
2 -15.1762 7.76406 -15.3532
2 -11.5296 7.72576 -15.416
1 -7.68613 7.56109 -15.4828
2 -3.94807 7.66065 -15.4472
2 0.173069 7.61631 -15.5359
1 3.81654 7.63866 -15.2698
3 7.67606 7.57557 -15.3082
2 11.7332 7.58441 -15.4392
3 15.205 7.70151 -15.2369
2 -11.5323 11.3854 -15.3482
2 -7.68459 11.2039 -15.3617
2 -3.63377 11.2907 -15.4071
2 0.209876 11.6845 -15.5102
1 3.94793 11.5016 -15.3291
2 7.58299 11.4307 -15.0294
1 11.3403 11.4577 -15.1411
2 -7.65636 15.4903 -15.3967
3 -3.92054 15.3358 -15.3298
1 -0.176456 15.3435 -15.6152
1 3.91886 15.5542 -15.27
2 7.54421 15.203 -15.216
1 -7.88784 -19.0257 -11.6154
3 -3.69469 -19.1651 -11.381
2 0.150183 -19.0859 -11.4874
2 4.46635 -19.5332 -11.7069
1 8.5586 -19.0745 -11.6678
2 -11.5376 -15.3861 -11.8128
2 -7.70856 -15.3565 -11.3099
2 -3.8403 -15.2597 -11.2059
2 0.0482292 -15.3258 -11.3339
2 3.9216 -15.279 -11.3195
1 7.73453 -15.4611 -11.538
2 11.7132 -15.0656 -11.6073
2 -15.44 -11.4914 -11.2977
3 -11.5392 -11.5038 -11.4946
2 -7.52247 -11.6006 -11.4514
2 -3.92495 -11.7446 -11.4023
2 0.120249 -11.5538 -11.3266
3 3.82522 -11.6312 -11.494
2 7.4611 -11.4075 -11.3642
2 11.3828 -11.4628 -11.4447
3 15.2028 -11.4687 -11.1378
1 -19.112 -7.96243 -11.524
1 -15.5337 -7.91983 -11.4297
2 -11.4201 -7.70469 -11.4014
2 -7.59883 -7.8636 -11.5363
2 -3.72433 -7.8955 -11.2929
2 -0.0223883 -7.83711 -11.4448
2 3.79508 -7.76843 -11.5226
3 7.77474 -7.6319 -11.6543
3 11.5939 -7.85175 -11.657
1 15.3896 -7.618 -11.5466
1 19.0255 -8.3579 -11.9973
2 -19.8104 -4.18454 -12.0208
2 -15.5191 -3.82385 -11.482
2 -11.3764 -3.56665 -11.316
3 -7.67766 -3.87995 -11.3882
2 -3.99502 -3.90313 -11.4519
2 -0.0403598 -3.80742 -11.5511
2 3.55128 -3.68185 -11.5206
1 7.666 -3.90205 -11.409
1 11.3174 -3.72486 -11.2641
2 14.9821 -3.89788 -11.4755
1 20.2097 -5.99075 -11.6434
3 -19.2203 0.0254411 -11.4355
1 -15.2393 0.0355598 -11.4489
2 -11.7492 0.0831542 -11.5598
2 -7.9414 0.110387 -11.4501
1 -3.9403 -0.102249 -11.5373
2 0.125771 -0.0410427 -11.4107
2 3.85353 0.00108994 -11.3454
2 7.72958 0.0318571 -11.5458
1 11.5118 -0.0840991 -11.5032
2 15.2401 0.125941 -11.5709
1 19.6663 -1.11851 -11.8435
3 -19.0146 4.058 -11.573
1 -15.3476 3.90336 -11.6033
2 -11.5877 3.70358 -11.67
1 -7.75163 3.62564 -11.6449
2 -3.93275 3.56043 -11.5006
3 0.00584835 3.87147 -11.6816
3 3.9353 3.82677 -11.4569
1 7.36867 3.70592 -11.6055
2 11.3815 3.81084 -11.2643
1 15.3022 3.89351 -11.541
1 19.3319 3.58135 -11.3546
3 -18.8526 7.70746 -11.5527
2 -15.1912 7.72385 -11.5248
2 -11.4913 7.77699 -11.3458
1 -7.63139 7.6785 -11.5733
1 -3.83494 7.7619 -11.601
1 0.0828976 7.68127 -11.4795
2 3.6708 7.59845 -11.4782
1 7.59721 7.65318 -11.3749
1 11.3345 7.55943 -11.3541
3 15.1669 7.75584 -11.4239
2 18.9053 7.8175 -11.5422
3 -15.0566 11.6569 -11.6214
2 -11.2101 11.6341 -11.6439
3 -7.64892 11.1257 -11.519
2 -3.53672 11.6133 -11.7801
2 -0.0330275 11.5029 -11.5425
3 3.76395 11.5306 -11.4011
1 7.57766 11.3928 -11.3976
2 11.2677 11.1961 -11.3048
3 15.2354 11.3772 -11.471
2 -11.1952 15.2117 -11.4224
2 -7.57088 15.2943 -11.4687
2 -3.60399 15.3553 -11.5478
2 0.0928663 15.3482 -11.6892
2 3.99299 15.5309 -11.6487
1 7.55299 15.4035 -11.4076
3 11.4948 15.0574 -11.3356
2 -7.65829 19.2027 -11.4307
2 -3.72695 19.1705 -11.5064
2 0.297265 19.2326 -11.8894
3 3.84933 18.9975 -11.5661
3 7.85478 18.9983 -11.4238
2 -0.0281336 -22.8079 -7.656
1 -11.4991 -19.2378 -7.73915
2 -7.65903 -19.4046 -7.73945
2 -3.8259 -19.2456 -7.65207
2 0.176736 -19.3245 -7.58303
3 4.21276 -19.1736 -7.56771
2 7.64187 -19.072 -7.70291
2 11.5837 -18.9978 -7.89471
2 -15.5732 -15.4298 -8.04758
2 -11.5132 -15.3997 -7.7298
3 -7.6763 -15.5642 -7.67641
1 -3.80286 -15.398 -7.65705
3 0.179628 -15.3698 -7.46386
3 4.03758 -15.2229 -7.69142
3 7.73797 -15.3668 -7.63238
1 11.4717 -15.191 -7.58176
1 15.4045 -15.38 -7.96533
1 -18.8585 -11.3886 -7.63408
3 -15.3154 -11.5102 -7.51652
2 -11.4371 -11.6094 -7.57377
2 -7.7194 -11.7667 -7.61534
3 -3.68303 -11.769 -7.66972
1 -2.48601e-06 -11.5721 -7.51526
1 3.92357 -11.5063 -7.72232
2 7.6633 -11.6272 -7.74761
2 11.5083 -11.4264 -7.57076
2 15.2993 -11.3215 -7.53049
2 19.2059 -11.495 -8.18449
1 -18.9057 -7.92041 -7.54546
1 -15.2032 -7.72603 -7.64265
3 -11.3233 -7.8475 -7.63306
1 -7.62658 -7.79357 -7.63886
2 -3.74739 -7.75146 -7.47796
1 0.100349 -7.54076 -7.71708
1 3.6209 -7.6192 -7.76635
1 7.70939 -7.61301 -7.59921
2 11.3906 -7.60825 -7.85563
1 15.2847 -7.47792 -7.66191
2 18.9907 -7.65605 -7.60733
2 -19.0524 -3.86337 -7.58085
1 -15.0643 -3.94724 -7.45859
1 -11.4929 -3.86232 -7.69627
2 -7.54329 -3.89335 -7.58353
1 -3.7416 -3.9643 -7.57722
2 -0.135491 -3.74565 -7.75351
1 3.69321 -3.91669 -7.74609
1 7.55773 -4.02193 -7.74808
2 11.4466 -3.87849 -7.57909
3 15.1073 -3.6262 -7.61667
1 18.8882 -3.8234 -7.63271
1 -22.6196 0.0641276 -7.24895
3 -19.0123 0.0331304 -7.44308
2 -15.4654 0.0317633 -7.6303
2 -11.4953 0.20993 -7.5174
1 -7.79431 0.0145546 -7.61999
3 -3.84609 -0.0709746 -7.63366
1 -0.0887191 0.0636032 -7.69421
2 3.82737 -0.179698 -7.68801
1 7.57527 -0.139989 -7.60544
2 11.3859 0.121567 -7.55875
2 15.1807 0.0629474 -7.69774
3 18.9026 -0.0497208 -7.55655
1 22.7474 -0.209143 -7.68548
2 -19.0287 3.97213 -7.46629
2 -15.4362 4.04686 -7.64926
2 -11.5233 3.84853 -7.61445
1 -7.7755 3.78861 -7.58211
3 -3.75861 3.83048 -7.70315
2 -0.0476752 3.831 -7.73156
3 3.61654 3.7605 -7.62475
1 7.67523 3.76652 -7.5645
1 11.3189 3.88843 -7.68315
2 15.1678 3.88446 -7.72987
2 18.9345 3.9022 -7.55476
2 -18.9431 7.81981 -7.88341
2 -15.5466 7.8005 -7.63929
3 -11.5676 7.51263 -7.59222
1 -7.57965 7.67503 -7.69558
1 -3.73466 7.82967 -7.58013
3 -0.071252 7.75932 -7.62088
1 3.65626 7.69549 -7.66207
3 7.41377 7.56982 -7.48478
3 11.2727 7.88165 -7.63316
3 15.1236 7.77353 -7.56379
1 18.8606 7.28893 -8.10822
2 -18.9963 11.655 -8.19815
3 -15.2063 11.5492 -7.66719
2 -11.4111 11.9358 -7.82364
3 -7.68558 11.577 -7.71962
3 -3.66799 11.4655 -7.7464
2 0.144624 11.5509 -7.49365
2 3.56876 11.5877 -7.49609
1 7.5101 11.3756 -7.75622
2 11.2771 11.4253 -7.59501
1 15.4262 11.282 -7.75213
2 18.9444 11.6974 -7.97862
2 -15.2561 15.2959 -7.84458
2 -11.2726 15.286 -7.73674
3 -7.49256 15.2896 -7.88033
1 -3.99631 15.3251 -7.64772
3 -0.105187 15.4274 -7.71459
2 3.8105 15.1046 -7.68377
2 7.62679 15.1584 -7.55966
2 11.5602 15.4508 -7.36
3 15.1589 15.1727 -7.5667
3 -11.426 18.7746 -7.75301
3 -7.59228 19.2215 -7.64195
3 -3.81061 19.2111 -7.76859
1 -0.027802 19.1844 -7.72513
2 3.96324 19.108 -7.54845
1 7.65605 19.0146 -7.42419
1 11.5264 19.2111 -7.38474
1 0.125534 24.8001 -5.3461
2 -4.01538 -23.0248 -3.65754
2 0.149194 -23.0319 -3.84263
1 4.08648 -22.8025 -3.91349
2 -11.8404 -19.368 -3.99586
2 -7.72745 -19.2811 -3.89177
1 -3.55902 -19.2693 -3.84492
2 0.298898 -19.2377 -3.97649
3 4.00481 -19.1392 -3.76821
1 7.90956 -19.0047 -3.78834
2 11.5294 -19.1222 -3.84012
2 -15.3479 -15.5367 -3.83307
2 -11.5093 -15.4607 -3.77786
2 -7.607 -15.4018 -3.81247
2 -3.85189 -15.3403 -3.84278
1 0.228059 -15.4992 -3.71638
1 3.74981 -15.2891 -3.72906
1 7.54854 -15.3336 -3.92291
2 11.5884 -15.3315 -3.96066
3 15.3932 -15.285 -4.14613
3 -18.8029 -11.3304 -3.80117
3 -15.186 -11.58 -3.70569
1 -11.2782 -11.5273 -3.92949
2 -7.62522 -11.5475 -3.91111
1 -3.80286 -11.7205 -3.81598
2 0.0500174 -11.6176 -3.84339
2 4.00087 -11.5148 -3.80729
3 7.89115 -11.3941 -3.81232
1 11.3219 -11.3866 -3.77646
1 15.3766 -11.3707 -3.9814
1 19.3144 -11.2638 -4.37485
2 -18.859 -7.51949 -3.81975
2 -15.2711 -7.52201 -3.75551
1 -11.5282 -7.79053 -3.64784
2 -7.67865 -7.83031 -3.80186
2 -3.78227 -7.79492 -3.86058
3 -0.114849 -7.69367 -3.93427
3 3.78924 -7.61134 -3.70565
2 7.6803 -7.60343 -3.68494
3 11.4905 -7.75572 -3.88481
3 15.2406 -7.4744 -3.90981
2 19.0799 -7.78751 -4.03383
3 -22.7165 -3.81898 -3.79842
3 -19.0871 -3.93303 -3.77441
2 -15.1673 -3.90506 -3.62102
3 -11.3648 -3.93614 -3.7751
3 -7.54943 -3.91291 -3.91233
2 -4.02102 -3.77378 -3.60799
2 -0.0504267 -3.92794 -3.74663
3 3.80984 -3.92425 -3.96089
2 7.56395 -3.99773 -3.7597
1 11.4294 -3.93835 -3.841
3 15.1557 -3.85588 -3.81675
1 19.045 -3.78978 -4.06506
2 22.9557 -3.97656 -4.1221
1 -23.0157 -0.0795795 -3.70737
2 -19.0028 -0.0659375 -3.59971
3 -15.3674 0.180213 -3.8025
2 -11.3817 0.08438 -3.70245
1 -7.65338 0.0383634 -3.85785
1 -3.81266 0.0616904 -3.69156
2 -0.015725 -0.054285 -3.63852
3 3.56839 -0.176366 -3.99784
3 7.40069 -0.0254799 -3.66303
2 11.2524 -0.0969211 -3.67049
3 15.1405 -0.0362597 -3.84481
2 18.9482 -0.0893849 -3.89772
2 22.8363 0.00467005 -3.89978
3 -22.4412 3.9152 -3.83231
1 -19.2205 3.9628 -3.77032
3 -15.3789 4.00716 -3.85454
2 -11.4639 3.8395 -3.87471
3 -7.65251 3.84205 -3.83154
2 -3.69971 3.89606 -3.81939
1 -0.0262165 3.80965 -3.77037
1 3.82241 3.84912 -3.80866
1 7.40478 3.70796 -3.75629
2 11.335 3.7317 -3.80786
2 15.2311 3.80269 -3.66947
2 18.9007 3.82611 -4.024
2 22.5578 3.93294 -4.30564
2 -19.2927 7.45511 -3.88163
2 -15.2633 7.68747 -3.94458
2 -11.4207 7.63962 -3.78915
2 -7.61341 7.80464 -3.70968
1 -3.76617 7.49342 -3.5768
3 0.0391614 7.72018 -3.81284
3 3.76879 7.68963 -3.77906
2 7.49524 7.48369 -3.6939
2 11.4566 7.59284 -3.7259
2 15.0363 7.61838 -3.75489
3 19.1462 7.7049 -3.97303
1 -19.0862 11.719 -4.07358
2 -15.0982 11.6427 -4.00488
3 -11.2772 11.4528 -3.8399
3 -7.48003 11.7564 -3.75257
3 -3.61076 11.6805 -3.8961
2 0.0391094 11.5979 -3.73188
2 3.83647 11.5992 -3.72199
2 7.47155 11.3778 -3.73131
2 11.4218 11.4245 -3.84814
2 15.2224 11.4779 -3.80573
1 19.5505 12.1511 -4.25821
3 -15.222 15.3396 -4.14274
2 -11.4315 15.2025 -3.83793
2 -7.4408 15.1367 -4.01636
2 -3.69142 15.308 -3.92088
2 -0.0398078 15.2284 -3.65824
2 3.89491 15.3919 -3.66061
3 7.5889 15.3661 -3.40508
1 11.4442 15.1917 -3.70801
3 15.6417 15.2598 -3.84316
2 -11.3094 19.4715 -3.98229
2 -7.73425 19.0969 -3.74664
2 -3.76412 19.3843 -3.68085
2 -0.0328011 18.9943 -3.97629
1 3.84251 19.1952 -3.65266
3 7.59317 18.9856 -3.77857
1 11.7538 19.9468 -4.79411
3 -3.65488 22.8514 -3.74456
1 0.100326 23.2234 -3.53257
2 3.94303 23.0187 -3.70683
1 -7.51802 -22.7817 -0.110357
1 -3.69542 -22.9942 0.176548
2 0.282752 -22.9943 -0.183036
3 3.92264 -23.0382 -0.12279
3 7.47713 -22.5895 0.0361336
3 -11.3951 -19.3035 -0.0247428
2 -7.51284 -19.1669 -0.0510336
2 -3.6798 -19.2509 0.185701
3 0.108582 -19.3321 0.0343991
2 3.86145 -19.1004 -0.0260915
2 7.71517 -18.9971 -0.0933262
2 11.7452 -19.1057 0.106534
2 -15.1934 -15.4238 -0.236485
2 -11.5204 -15.6983 0.120373
2 -7.54844 -15.4644 0.0287363
1 -3.8191 -15.4207 -0.0141886
3 0.117181 -15.3821 0.00472495
1 4.00951 -15.2467 0.0393533
2 7.60516 -15.151 -0.186189
2 11.5429 -15.251 -0.199059
2 15.4793 -15.2827 -0.0522997
2 -19.2349 -11.5764 0.123588
1 -15.2182 -11.678 -0.243065
2 -11.6573 -11.6476 -0.186085
2 -7.65993 -11.5985 -0.0901796
1 -3.70098 -11.5264 -0.048707
2 0.167442 -11.4976 0.133618
2 3.88767 -11.4447 0.13493
3 7.61488 -11.4983 0.036884
1 11.3461 -11.3748 0.199504
1 15.3496 -11.6683 -0.0420923
3 18.9764 -11.4281 -0.0620721
2 -22.462 -7.88514 -0.0160533
2 -18.8738 -7.7342 0.0970791
3 -15.2104 -7.5873 -0.0223886
2 -11.4353 -7.6939 0.0692535
2 -7.67019 -7.7426 -0.00384831
3 -3.71976 -7.67265 -0.192014
2 0.106527 -7.77785 0.00204478
2 3.88957 -7.57718 -0.0172978
2 7.59203 -7.5834 0.00833494
1 11.5024 -7.38236 -0.0443419
3 15.4094 -7.67305 -0.0657377
2 19.5134 -7.96902 0.0104343
2 22.9564 -8.48057 0.103657
2 -22.8552 -4.07093 -0.0122568
3 -19.1919 -3.90953 -0.00139726
3 -15.2467 -3.7889 0.0439204
3 -11.544 -3.94523 0.000141191
1 -7.85738 -3.92777 -0.0371952
2 -3.79852 -3.74628 -0.168072
2 0.141628 -3.91391 -0.151803
1 3.81306 -3.84859 0.255573
2 7.57064 -3.76352 0.084688
3 11.5363 -3.84746 0.11492
1 15.276 -3.83143 0.0663439
3 19.0524 -3.93936 -0.0731473
1 22.9017 -3.97336 -0.0867465
2 -22.9725 0.198357 -0.0399219
1 -18.96 -0.059231 0.135775
2 -15.1781 0.142485 0.150379
1 -11.5435 0.0427432 0.0124608
1 -7.69836 -0.136814 0.080007
2 -3.66204 -0.0110142 0.043647
2 0.112451 0.0523003 0.0788644
3 3.754 -0.0051581 0.110058
1 7.6241 -0.0460298 0.0307352
1 11.3594 -0.195648 -0.032318
3 15.17 -0.00645289 -0.0363018
2 19.2261 -0.0969514 0.0479264
3 22.9107 -0.0469298 -0.183273
2 -22.8204 3.52894 0.157058
1 -19.1502 3.88124 0.0784587
2 -15.3898 3.97472 0.0968853
3 -11.5161 3.84532 0.048902
2 -7.69926 3.84143 0.000573433
3 -3.80367 3.95145 -0.00879421
2 0.011247 3.86581 -0.00272724
2 3.9084 3.88815 0.148756
2 7.53798 3.84231 0.123987
2 11.2031 3.8657 -0.071049
1 15.1871 3.65409 0.0144174
1 18.9272 3.82746 -0.215101
3 22.7166 3.77424 -0.229662
1 -22.8769 7.7844 -0.185466
3 -18.9604 7.76156 0.0952522
3 -15.1893 7.5992 -0.228609
2 -11.3439 7.69994 -0.128888
1 -7.53057 7.7117 -0.233432
1 -3.8076 7.77356 0.0132708
3 0.122124 7.60945 0.103524
2 3.95001 7.80689 -0.111022
3 7.5798 7.72996 0.0356418
1 11.3753 7.6557 -0.00776677
3 15.4216 7.67137 -0.038263
2 19.1024 7.60496 0.0548654
2 22.8889 7.54907 -0.0292155
3 -18.9129 11.4801 0.275713
1 -15.341 11.8279 0.0657614
2 -11.6203 11.5454 -0.193333
3 -7.56744 11.557 -0.00959298
2 -3.76934 11.5326 -0.0784331
2 -0.0520795 11.4662 0.00334113
3 3.80302 11.4221 0.0478973
3 7.4913 11.3891 0.0888293
1 11.3602 11.5412 -0.0654876
2 15.2171 11.5481 0.058333
2 19.0173 11.5398 -0.0570591
2 -15.1491 15.3345 0.105649
3 -11.4871 15.3659 -0.018238
3 -7.56698 15.389 0.0284001
3 -3.79803 15.2185 -0.062001
2 -0.0873669 15.2274 0.0289562
3 3.69556 15.3599 0.136257
2 7.53284 15.3368 -0.00775822
3 11.618 15.3073 0.0616979
3 15.155 15.271 0.101412
2 -11.6636 19.5655 -0.148379
3 -7.73702 19.2855 -0.0710835
3 -3.82715 18.9824 0.0380324
1 -0.0666186 19.2229 0.0250598
1 3.7764 19.1658 -0.0298136
3 7.82334 19.3879 0.0940654
3 11.3432 18.9597 -0.288277
2 -7.16166 23.2987 0.0964002
3 -3.58693 23.009 0.166693
1 -0.0342002 22.8972 0.127959
3 3.77262 22.7858 0.131732
2 7.55047 22.852 -0.271875
1 -3.95853 -22.7288 3.93827
1 0.276367 -22.6297 3.9316
1 3.82193 -22.6616 3.91676
2 -11.549 -19.1642 3.91746
1 -7.64277 -19.1581 3.82297
2 -3.80596 -18.9851 3.91384
2 0.0443515 -19.1818 3.95587
1 3.97913 -19.1426 3.81068
3 7.76901 -19.1438 3.80863
2 11.6036 -19.1906 4.19057
1 -16.6456 -16.1991 3.89815
2 -11.3337 -15.431 3.87424
1 -7.73454 -15.4639 3.82644
3 -3.87938 -15.3584 3.99749
2 -0.00783224 -15.3743 3.93386
2 3.84774 -15.3695 3.85994
2 7.6881 -15.1183 3.99885
2 11.4881 -15.2139 3.85394
2 15.6333 -15.3384 3.81462
2 -19.2165 -11.7917 4.20635
1 -15.463 -11.5256 3.85471
2 -11.5816 -11.5461 3.59784
2 -7.52917 -11.5666 3.91644
2 -3.91748 -11.5662 3.74302
1 0.124171 -11.4901 3.70156
3 3.84121 -11.4115 3.89613
2 7.48547 -11.3303 3.91469
2 11.6415 -11.3911 3.91351
2 15.3902 -11.288 3.66506
2 20.8326 -11.4348 5.80658
3 -19.0316 -7.60304 3.91954
1 -15.3483 -7.93734 3.78964
2 -11.569 -7.65521 3.75927
2 -7.6025 -7.77981 3.88916
3 -3.6786 -7.85712 3.78805
2 0.0624035 -7.68598 3.69995
3 3.69463 -7.67691 3.68389
1 7.60061 -7.51469 3.84351
1 11.5566 -7.54266 3.96104
1 15.2311 -7.73165 3.8098
2 19.0468 -7.76974 3.65894
1 -22.7223 -4.06268 3.81641
2 -19.0134 -3.83451 3.80753
2 -15.5111 -3.75917 3.87782
2 -11.4684 -3.67974 3.87864
1 -7.68053 -3.78888 4.05478
1 -3.85769 -3.91948 3.82595
1 -0.139553 -3.72706 3.91711
3 3.70615 -3.8568 3.77958
2 7.77194 -3.94214 3.69963
2 11.4081 -3.98278 3.92037
3 15.4427 -3.80721 3.60359
2 19.3583 -3.67921 3.74246
2 23.4394 -3.36358 4.1675
2 -22.854 -0.117865 3.69752
3 -19.0411 0.131811 3.82054
2 -15.2742 0.155039 3.79712
2 -11.4511 -0.134697 3.72795
2 -7.59854 -0.0220061 3.86244
2 -3.84004 0.208978 3.8231
2 0.0190394 0.193029 3.77913
2 3.82732 0.0374076 3.79312
2 7.5983 -0.0887383 3.77302
3 11.4048 -0.074258 3.768
1 15.35 0.02482 3.88085
2 19.1298 0.0770314 3.64935
2 23.1399 0.199649 3.94974
3 -22.6845 3.76214 4.06285
1 -19.186 3.91338 4.05255
2 -15.3767 3.87861 3.7863
1 -11.3781 3.86808 3.74097
1 -7.66195 3.71314 3.95615
1 -3.7514 3.95903 3.81642
3 0.207082 3.81049 3.96629
3 3.90958 3.94501 3.78281
2 7.77082 3.86112 3.79759
2 11.3107 3.74621 3.67134
3 15.3766 3.75303 3.87333
2 18.9864 3.87296 3.75324
3 22.7269 3.80203 3.99223
2 -19.077 7.65954 3.72397
3 -15.2262 7.66927 3.76114
1 -11.5428 7.59107 3.761
3 -7.78972 7.87054 3.86905
1 -3.789 7.81946 3.84645
2 -0.0449778 7.65648 3.62546
3 3.87435 7.66371 3.83793
3 7.62675 7.72266 3.88059
1 11.5852 7.69383 3.72118
3 15.0648 7.63525 3.92346
1 18.9123 7.6086 3.98108
2 -19.042 11.6322 4.09726
3 -15.4613 11.5806 3.8816
3 -11.4842 11.7064 3.7962
3 -7.74801 11.7296 3.93548
1 -3.65447 11.6397 3.72818
2 -0.00123984 11.2898 3.7653
3 3.75085 11.2487 3.64751
2 7.56818 11.4385 3.87195
1 11.5188 11.551 3.75647
1 15.1655 11.6676 3.98777
2 18.8818 11.4016 3.85523
2 -16.4878 16.8479 4.09237
2 -11.7138 15.4629 3.9943
2 -7.46327 15.3328 3.94685
2 -3.77277 15.3869 3.71673
3 -0.010645 15.2356 3.71606
1 3.84237 15.3861 3.89451
2 7.6735 15.3093 3.7512
1 11.3552 15.225 3.61803
3 15.0429 15.4935 4.01951
2 -11.941 19.4215 4.00683
2 -7.58804 19.2984 3.84915
2 -3.66061 19.2809 3.83884
2 0.0488538 18.9707 3.65057
2 3.79138 19.1696 3.8292
3 7.67439 19.3482 3.71616
2 11.4184 19.1389 3.76975
3 -3.98485 22.7965 3.94011
3 0.121353 22.9663 3.88659
2 3.78874 22.8079 3.65622
2 0.215603 -22.932 7.57317
2 -11.665 -19.0288 7.81901
2 -7.56103 -19.1714 7.6878
2 -3.72436 -18.8783 7.9842
3 0.174838 -19.0948 7.77977
1 3.88827 -18.9271 7.58009
3 7.71137 -18.9924 7.76322
2 11.6818 -19.0828 7.73529
3 -15.2722 -15.2276 7.76054
3 -11.4262 -15.4461 7.55422
2 -7.66749 -15.3694 7.88681
3 -3.86324 -15.3254 7.70209
2 0.0643558 -15.2013 7.58311
2 3.90494 -15.2652 7.6562
3 7.67161 -15.2009 7.76714
2 11.6243 -15.2537 7.48438
3 15.3464 -15.0641 7.56788
1 -19.1527 -11.9432 7.80794
2 -15.4086 -11.5468 7.81045
3 -11.5266 -11.6253 7.63519
1 -7.75833 -11.5377 7.68382
2 -3.92609 -11.5563 7.69074
1 -0.0104258 -11.4697 7.62213
2 3.78385 -11.5268 7.62583
2 7.56291 -11.3763 7.6499
2 11.6471 -11.4247 7.77887
3 15.479 -11.4056 7.58906
3 19.1027 -11.3517 7.54933
1 -18.8795 -7.68955 7.89409
2 -15.3163 -7.30686 7.6306
2 -11.6061 -7.67379 7.64319
2 -7.45613 -7.80923 7.47682
2 -3.59701 -7.69646 7.58321
2 -0.034901 -7.77696 7.60557
2 3.80364 -7.57833 7.70476
2 7.7632 -7.4994 7.80416
2 11.6155 -7.55183 7.72533
3 15.49 -7.38151 7.57778
1 19.2683 -7.44591 7.40717
2 -19.2438 -4.00266 7.85284
2 -15.2751 -3.78594 7.6763
1 -11.4784 -3.78595 7.5932
2 -7.79948 -3.77039 7.48376
1 -3.78971 -3.77545 7.5785
1 -0.156928 -3.78913 7.52929
1 3.69126 -3.88914 7.69154
2 7.63129 -3.7039 7.48311
2 11.6169 -3.8015 7.59054
2 15.1638 -3.76484 7.3533
3 19.3323 -3.63382 7.61942
1 -22.9625 -0.0315887 7.39264
2 -19.0983 -0.00755799 7.60045
1 -15.2477 0.0727939 7.40304
2 -11.4061 -0.00831818 7.60597
2 -7.68677 0.00209743 7.78325
3 -3.83118 -0.0172147 7.5592
2 0.00251198 0.148488 7.71517
2 3.7496 -0.104065 7.52129
3 7.57962 0.0152809 7.57212
2 11.3635 -0.109827 7.52231
1 15.2896 0.0280778 7.61774
1 19.1309 0.0776952 7.62709
3 22.6936 0.13239 7.52717
2 -19.0837 3.88647 7.63703
2 -15.256 3.80235 7.57138
1 -11.5107 3.6781 7.53768
3 -7.74478 3.78511 7.63959
2 -3.93168 3.86288 7.62069
1 0.0335745 3.90734 7.63261
2 4.01569 3.93174 7.52585
3 7.79935 3.70356 7.56576
2 11.4265 3.83859 7.74441
2 15.0289 3.82292 7.63556
1 19.0039 3.75335 7.62347
2 -18.9106 7.86641 7.53413
1 -15.2201 7.5907 7.54363
2 -11.3766 7.78361 7.51985
1 -7.56604 7.78417 7.5314
2 -3.87101 7.71858 7.71001
1 0.109696 7.72153 7.70956
2 3.62772 7.72038 7.60272
2 7.60875 7.6276 7.67179
3 11.5582 7.49059 7.5929
2 15.1026 7.49603 7.66385
2 18.7263 7.75461 7.89079
2 -18.8142 11.1665 7.72334
3 -15.1233 11.617 7.63894
2 -11.5044 11.5929 7.58252
2 -7.70097 11.7862 7.50497
1 -3.95907 11.5478 7.58241
3 0.00322722 11.4113 7.66567
1 3.74196 11.6124 7.52242
2 7.43265 11.5298 7.42135
1 11.4027 11.449 7.57912
3 15.131 11.4624 7.93558
1 18.6596 11.4147 7.88442
2 -15.2931 15.5954 8.00519
3 -11.5497 15.5023 7.7857
2 -7.61705 15.4256 7.67416
1 -3.75762 15.1485 7.6342
3 -0.105296 15.2773 7.63935
1 3.85084 15.1473 7.79586
1 7.57463 15.2065 7.58237
1 11.3831 15.3117 7.74429
2 14.9785 15.3129 7.90777
1 -11.5545 19.0386 8.01924
2 -7.03677 19.148 7.85064
2 -4.13238 19.5059 7.99656
1 0.0570029 19.2323 7.72849
2 3.88586 19.077 7.60182
2 7.51319 18.8208 7.51666
2 11.3612 19.5547 7.83976
3 0.218664 22.7635 7.82386
2 -7.82274 -18.985 11.5276
3 -3.79442 -18.9833 11.5296
3 0.306978 -19.2539 11.4161
3 4.06539 -18.9915 11.5675
1 7.88259 -18.7923 11.4072
3 -11.2948 -15.2538 11.3596
1 -7.76812 -15.5255 11.7566
3 -3.78781 -15.1022 11.4093
2 -0.103592 -15.2651 11.5379
2 3.82591 -15.3526 11.3234
2 7.60243 -15.3213 11.5852
3 11.3979 -15.0321 11.4922
1 -15.1324 -11.7953 11.5664
1 -11.2459 -11.502 11.4883
2 -7.5527 -11.3126 11.4066
2 -3.83133 -11.5521 11.4534
2 0.0880773 -11.5873 11.6246
2 3.887 -11.4546 11.5847
2 7.69743 -11.1935 11.745
2 11.489 -11.4069 11.1885
1 15.406 -11.1467 11.2283
2 -18.897 -8.30897 11.1493
2 -15.1722 -7.52476 11.5219
2 -11.3825 -7.48144 11.4448
3 -7.64438 -7.57464 11.4468
1 -3.90149 -7.41288 11.4363
3 -0.188765 -7.70718 11.4915
1 3.83801 -7.78373 11.5215
2 7.47533 -7.58987 11.5208
3 11.5867 -7.63359 11.5136
1 15.2958 -7.50046 11.4073
3 19.3636 -7.52215 11.1011
2 -19.273 -3.92292 11.4056
2 -15.2679 -3.55309 11.3645
2 -11.3869 -3.59484 11.4559
3 -7.66817 -3.7624 11.4729
3 -3.87047 -3.76383 11.3775
1 -0.0910481 -3.98912 11.4057
3 3.72667 -3.93273 11.3323
1 7.45931 -3.82204 11.4507
3 11.423 -3.8574 11.6155
3 15.3147 -3.68305 11.3772
3 19.2741 -3.88701 11.3531
3 -19.1198 0.277164 11.553
1 -15.1701 0.0952808 11.5092
1 -11.46 -0.0293582 11.2039
3 -7.56823 -0.109526 11.4824
2 -3.80608 0.0425852 11.3997
2 -0.0817873 -0.0354465 11.4452
1 3.84533 -0.109257 11.4695
2 7.52319 -0.103051 11.6
2 11.4458 -0.0561815 11.4344
2 15.3223 0.0435264 11.5042
3 19.0215 0.00708433 11.4903
2 -20.4161 4.3195 12.6125
1 -15.2209 3.74999 11.3752
2 -11.4769 3.66223 11.2832
1 -7.59571 3.85697 11.4646
2 -3.88955 3.6547 11.403
3 -0.0910293 3.75789 11.4733
2 3.79456 3.89062 11.5093
2 7.43221 3.71913 11.4884
3 11.3058 3.77829 11.5688
3 15.0607 3.72759 11.5076
2 19.004 3.77739 11.4735
1 -18.9324 8.10571 11.5697
2 -15.1245 7.69892 11.3702
3 -11.4516 7.702 11.3314
1 -7.6996 7.57937 11.3718
2 -3.81699 7.67816 11.319
2 -0.00779173 7.71013 11.5479
2 3.81135 7.71495 11.4887
2 7.38252 7.7259 11.4578
1 11.2294 7.64678 11.4508
3 15.2009 7.71918 11.3559
2 18.6488 8.02523 11.7058
3 -15.209 11.385 11.287
2 -11.5285 11.5496 11.2958
3 -7.55251 11.5759 11.3808
3 -3.91382 11.5116 11.4477
2 0.0522208 11.4814 11.5332
2 3.76589 11.4441 11.5856
3 7.39944 11.3901 11.4945
1 11.3367 11.3994 11.2102
2 14.9942 11.4116 11.573
1 -11.5175 15.4792 11.811
2 -7.77968 15.2437 11.6618
3 -4.01576 15.3566 11.727
1 0.0300539 15.2552 11.4559
2 3.63944 15.2326 11.6052
2 7.64024 15.2157 11.5325
1 11.3273 15.5664 11.6476
3 -7.92093 19.3136 11.5131
2 -3.25576 17.9229 15.7841
1 -0.247613 19.3635 11.9234
2 2.70941 19.545 12.7576
1 7.14207 18.9284 11.6153
1 -7.83319 -15.3315 15.3267
2 -3.71091 -15.3304 15.5928
2 -0.143418 -15.3672 15.1576
1 4.02498 -15.7533 15.5754
1 7.8803 -15.4647 15.3655
2 -11.5358 -11.8308 15.4316
3 -7.71281 -11.4543 15.2047
3 -3.86575 -11.5166 15.2747
2 0.0385444 -11.5722 15.3344
1 3.68514 -11.6797 15.3577
2 7.82689 -11.6124 15.4262
3 11.3715 -11.4658 15.2012
3 -15.5082 -8.10099 15.1045
3 -11.4686 -7.77805 15.4546
2 -7.71515 -7.78481 15.4522
1 -3.85675 -7.6103 15.3356
2 0.151104 -7.83444 15.2755
2 3.73837 -7.66882 15.5238
2 7.7398 -7.77845 15.2435
3 11.6783 -7.81743 15.3838
3 15.3772 -7.8725 15.0934
2 -16.2303 -3.779 15.7711
2 -11.2234 -3.95288 15.3206
3 -7.75839 -3.76845 15.2707
3 -3.8916 -3.7971 15.3311
3 -0.0830258 -3.83247 15.3587
2 3.63317 -3.70568 15.4805
1 7.79936 -3.82146 15.371
2 11.5816 -3.78369 15.2611
3 15.1417 -3.89204 15.2774
2 -15.4589 0.120196 15.1347
2 -11.4916 0.140248 15.2446
2 -7.55609 -0.0479817 15.0275
2 -3.79468 -0.0261421 15.3837
2 -0.135217 -0.0500952 15.3523
1 3.82364 -0.104705 15.3746
1 7.47787 0.019283 15.4034
1 11.5366 0.0343999 15.4979
3 15.2607 -0.111698 15.2215
3 -15.2377 3.93507 15.3199
2 -11.5016 3.70228 15.1601
1 -7.66589 3.94169 15.1391
2 -3.79089 3.78272 15.1257
2 -0.255963 3.86052 15.4022
3 3.63925 3.84378 15.4181
2 7.45975 3.71819 15.3214
1 11.3891 3.84068 15.255
3 15.3771 3.71096 15.1065
1 -15.2408 7.80182 15.3118
3 -11.4954 7.68367 15.1064
2 -7.57922 7.66414 15.1955
1 -4.00301 7.62542 15.2459
2 -0.18717 7.97389 15.3073
2 3.57393 7.67366 15.3489
1 7.3922 7.63219 15.2673
3 11.4579 7.56096 15.1582
1 15.0442 7.74079 15.2238
1 -11.7719 11.7427 15.7502
2 -7.47016 11.4424 15.3035
3 -3.81495 11.4232 15.5053
2 -0.088563 11.5387 15.3297
2 3.66537 11.4895 15.3181
1 7.58441 11.4154 15.4835
3 11.2588 11.3697 15.1347
2 -7.97327 15.3521 15.5262
2 -3.81636 15.3441 15.6243
2 0.00226622 15.2995 15.2685
2 3.19297 15.448 15.7968
3 7.46722 15.1494 15.1499
2 -7.63474 -11.3885 18.8837
3 -3.78279 -11.475 19.0867
2 -0.0784194 -12.9767 21.0176
2 3.62848 -11.649 19.2904
2 7.93796 -11.6593 19.2753
2 -11.7451 -7.97935 19.1794
2 -7.63295 -7.60614 18.9675
1 -4.01776 -7.65382 19.2167
2 -0.187632 -7.54758 19.0896
2 3.95838 -7.70135 19.1821
2 7.63648 -7.90648 19.2488
3 11.6946 -7.83353 19.2653
2 -11.867 -3.95949 18.9762
2 -7.76361 -3.7859 19.0813
1 -3.95478 -3.76611 19.3394
3 -0.101085 -3.66185 19.0527
2 3.86326 -3.86155 19.3131
2 7.60424 -3.85568 19.2545
2 11.4406 -5.71111 20.8989
1 -11.8355 0.0779522 19.3475
2 -7.98551 -0.0491247 19.1662
3 -4.13274 0.0597182 19.1988
2 -0.0247709 -0.00673237 19.253
2 3.90176 0.086628 19.3619
2 7.52767 0.0588857 19.3695
2 11.4755 0.376388 19.2667
2 -11.6464 3.97428 19.032
2 -7.65192 3.83535 19.0536
3 -3.98766 3.61206 19.0809
2 -0.076579 3.94635 18.9645
3 3.55733 3.89878 19.2578
2 7.49012 3.92726 19.2945
2 11.4523 3.93977 19.2565
3 -11.4992 7.66483 18.6529
3 -7.77643 7.49204 18.9231
3 -3.97027 7.576 19.0149
3 -0.133714 7.75008 19.142
2 3.73996 7.55403 19.0937
3 7.53747 7.65032 19.0374
1 11.2981 7.51297 19.0138
2 -7.74377 11.1192 19.1099
1 -4.01129 11.3775 19.1864
3 -0.188799 11.4984 18.9851
2 3.85819 11.6943 19.2147
1 7.91009 11.4712 18.9006
2 -0.16531 -7.82514 22.9016
1 -3.83888 -3.73171 23.032
2 -0.257601 -3.85642 22.9762
2 3.49873 -3.92873 22.7904
2 -7.78836 -0.105809 23.1015
1 -3.75835 0.182671 23.1675
2 -0.221809 -0.0215813 23.0393
2 3.59854 0.186183 22.9397
2 7.72756 0.276459 22.9955
2 -4.18764 3.97472 22.9945
3 -0.334031 4.07784 22.8659
3 3.38643 3.75145 22.8487
2 -0.353622 7.66718 23.0996
2 -5.26177 -6.05406 -22.9359
3 -1.55507 -6.00805 -22.8048
2 1.9642 -5.32812 -22.9769
2 5.74868 -5.47407 -22.6687
3 -5.51529 -2.17506 -22.6244
3 -1.91398 -1.84993 -22.9208
3 2.03488 -2.08551 -22.9965
1 5.92194 -1.93268 -22.5987
1 -5.7823 1.94745 -22.5591
3 -1.78243 2.00047 -22.8454
2 2.03057 2.07388 -22.6697
1 5.90024 2.03448 -23.0225
1 -5.81117 4.64904 -21.8835
1 -2.06644 5.74724 -22.7876
2 1.96117 5.86366 -22.8071
1 7.67077 4.08075 -22.8888
2 -6.02308 -13.2679 -19.0264
1 -1.75627 -13.2274 -18.9511
1 2.15962 -13.3799 -19.0647
2 5.6873 -13.4593 -18.9175
2 -9.83346 -9.83075 -18.8685
2 -5.97278 -10.7132 -19.9036
3 -1.7706 -9.65188 -18.9818
3 1.99892 -9.31481 -19.0507
1 5.55062 -9.46263 -19.1044
2 9.71903 -9.80633 -19.3993
1 -14.0254 -5.37683 -18.4063
2 -9.68753 -5.78708 -18.9388
3 -5.56853 -5.76908 -19.0806
1 -1.9172 -5.75446 -19.0169
1 1.79977 -5.7906 -18.9664
1 5.72506 -5.89395 -19.0738
3 9.46293 -5.47349 -19.0706
2 13.1185 -5.62672 -19.0937