LAMMPS DATA FOR MEAM SIMULATION

   3598   atoms
      3   atom types

  -33.82   33.82   xlo xhi
  -33.82   33.82   ylo yhi
  -33.82   33.82   zlo zhi

 Atoms

     1   2     0.00000     0.00000    -0.00000
     2   1     1.37500     2.38157    -0.00000
     3   2    -1.37500     2.38157    -0.00000
     4   2    -2.75000     0.00000    -0.00000
     5   2    -1.37500    -2.38157    -0.00000
     6   2     1.37500    -2.38157    -0.00000
     7   2     1.37500    -0.79386     2.24537
     8   3     0.00000     1.58771     2.24537
     9   2    -1.37500    -0.79386     2.24537
    10   2     0.00000    -1.58771    -2.24537
    11   2     1.37500     0.79386    -2.24537
    12   2    -1.37500     0.79386    -2.24537
    13   2     5.50000     0.00000    -0.00000
    14   1    -2.75000     4.76314    -0.00000
    15   2    -5.50000     0.00000    -0.00000
    16   2    -2.75000    -4.76314    -0.00000
    17   2     2.75000    -4.76314    -0.00000
    18   2     0.00000     3.17543     4.49073
    19   2    -2.75000    -1.58771     4.49073
    20   2     0.00000    -3.17543    -4.49073
    21   2     2.75000     1.58771    -4.49073
    22   2    -2.75000     1.58771    -4.49073
    23   2     4.12500     2.38157    -0.00000
    24   2     4.12500    -0.79386     2.24537
    25   2     4.12500     0.79386    -2.24537
    26   2     0.00000     4.76314    -0.00000
    27   2     1.37500     3.96928     2.24537
    28   2     2.75000     3.17543    -2.24537
    29   2    -4.12500     2.38157    -0.00000
    30   2    -2.75000     3.17543    -2.24537
    31   2    -4.12500    -2.38157    -0.00000
    32   1    -4.12500    -0.79386     2.24537
    33   2    -4.12500     0.79386    -2.24537
    34   2     0.00000    -4.76314    -0.00000
    35   2    -2.75000    -3.17543     2.24537
    36   2     4.12500    -2.38157    -0.00000
    37   2     2.75000    -3.17543     2.24537
    38   1     1.37500     0.79386     4.49073
    39   2     0.00000    -1.58771     4.49073
    40   2    -1.37500     0.79386     4.49073
    41   2     1.37500    -0.79386    -4.49073
    42   2    -1.37500    -0.79386    -4.49073
    43   3     0.00000     1.58771    -4.49073
    44   3     2.75000     1.58771     2.24537
    45   2     0.00000     3.17543    -2.24537
    46   2    -2.75000     1.58771     2.24537
    47   2    -2.75000    -1.58771    -2.24537
    48   2     0.00000    -3.17543     2.24537
    49   2     2.75000    -1.58771    -2.24537
    50   2     8.25000     0.00000    -0.00000
    51   2     4.12500     7.14471    -0.00000
    52   2    -4.12500     7.14471    -0.00000
    53   2    -8.25000     0.00000    -0.00000
    54   2    -4.12500    -7.14471    -0.00000
    55   2     4.12500    -7.14471    -0.00000
    56   2     4.12500    -2.38157     6.73610
    57   3     0.00000     4.76314     6.73610
    58   2    -4.12500    -2.38157     6.73610
    59   3     0.00000    -4.76314    -6.73610
    60   2     4.12500     2.38157    -6.73610
    61   2    -4.12500     2.38157    -6.73610
    62   2     6.87500     2.38157    -0.00000
    63   2     6.87500    -0.79386     2.24537
    64   2     1.37500     7.14471    -0.00000
    65   2     2.75000     6.35085     2.24537
    66   2     4.12500     5.55700    -2.24537
    67   2    -5.50000     4.76314    -0.00000
    68   2    -2.75000     6.35085     2.24537
    69   1    -4.12500     5.55700    -2.24537
    70   2    -6.87500    -2.38157    -0.00000
    71   2    -6.87500    -0.79386     2.24537
    72   2    -6.87500     0.79386    -2.24537
    73   2    -1.37500    -7.14471    -0.00000
    74   2    -4.12500    -5.55700     2.24537
    75   3    -2.75000    -6.35085    -2.24537
    76   1     5.50000    -4.76314    -0.00000
    77   2     4.12500    -5.55700     2.24537
    78   2     2.75000    -6.35085    -2.24537
    79   2     1.37500    -2.38157     6.73610
    80   2    -1.37500     2.38157     6.73610
    81   2     1.37500    -2.38157    -6.73610
    82   2    -1.37500    -2.38157    -6.73610
    83   2     1.37500     2.38157    -6.73610
    84   2     5.50000     4.76314    -0.00000
    85   2     5.50000    -1.58771     4.49073
    86   2     5.50000     1.58771    -4.49073
    87   2    -1.37500     7.14471    -0.00000
    88   2     1.37500     5.55700     4.49073
    89   2     4.12500     3.96928    -4.49073
    90   2    -6.87500     2.38157    -0.00000
    91   2    -1.37500     5.55700     4.49073
    92   2    -4.12500     3.96928    -4.49073
    93   2    -5.50000    -4.76314    -0.00000
    94   2    -5.50000    -1.58771     4.49073
    95   2    -5.50000     1.58771    -4.49073
    96   2     1.37500    -7.14471    -0.00000
    97   2    -4.12500    -3.96928     4.49073
    98   2    -1.37500    -5.55700    -4.49073
    99   2     6.87500    -2.38157    -0.00000
   100   2     4.12500    -3.96928     4.49073
   101   2     1.37500    -5.55700    -4.49073
   102   2     1.37500     2.38157     6.73610
   103   2    -1.37500    -2.38157     6.73610
   104   2    -2.75000     0.00000     6.73610
   105   2     2.75000     0.00000    -6.73610
   106   2    -1.37500     2.38157    -6.73610
   107   2     5.50000     3.17543    -2.24537
   108   2     0.00000     6.35085     2.24537
   109   2    -5.50000     3.17543    -2.24537
   110   2    -5.50000    -3.17543     2.24537
   111   2     0.00000    -6.35085    -2.24537
   112   2     5.50000    -3.17543     2.24537
   113   2     0.00000     0.00000     6.73610
   114   2     0.00000     0.00000    -6.73610
   115   2     5.50000     1.58771     2.24537
   116   2     1.37500     5.55700    -2.24537
   117   2    -4.12500     3.96928     2.24537
   118   2    -5.50000    -1.58771    -2.24537
   119   2    -1.37500    -5.55700     2.24537
   120   2     4.12500    -3.96928    -2.24537
   121   2     4.12500     0.79386     4.49073
   122   2     1.37500     3.96928    -4.49073
   123   2    -2.75000     3.17543     4.49073
   124   2     2.75000    -3.17543    -4.49073
   125   2     4.12500     3.96928     2.24537
   126   2    -1.37500     5.55700    -2.24537
   127   2    -5.50000     1.58771     2.24537
   128   2    -4.12500    -3.96928    -2.24537
   129   2     1.37500    -5.55700     2.24537
   130   1     5.50000    -1.58771    -2.24537
   131   2     2.75000     3.17543     4.49073
   132   3    -1.37500     3.96928    -4.49073
   133   2    -4.12500     0.79386     4.49073
   134   2     1.37500    -3.96928     4.49073
   135   2     4.12500    -0.79386    -4.49073
   136   2    11.00000     0.00000    -0.00000
   137   2     5.50000     9.52628    -0.00000
   138   2    -5.50000     9.52628    -0.00000
   139   2   -11.00000     0.00000    -0.00000
   140   3    -5.50000    -9.52628    -0.00000
   141   2     5.50000    -9.52628    -0.00000
   142   2     5.50000    -3.17543     8.98146
   143   1    -5.50000    -3.17543     8.98146
   144   2     0.00000    -6.35085    -8.98146
   145   2     5.50000     3.17543    -8.98146
   146   2    -5.50000     3.17543    -8.98146
   147   2     9.62500     2.38157    -0.00000
   148   2     9.62500     0.79386    -2.24537
   149   2     2.75000     9.52628    -0.00000
   150   1     4.12500     8.73242     2.24537
   151   3     5.50000     7.93857    -2.24537
   152   2    -6.87500     7.14471    -0.00000
   153   2    -4.12500     8.73242     2.24537
   154   2    -5.50000     7.93857    -2.24537
   155   2    -9.62500    -2.38157    -0.00000
   156   2    -9.62500    -0.79386     2.24537
   157   2    -9.62500     0.79386    -2.24537
   158   2    -2.75000    -9.52628    -0.00000
   159   2    -5.50000    -7.93857     2.24537
   160   2    -4.12500    -8.73242    -2.24537
   161   2     6.87500    -7.14471    -0.00000
   162   2     5.50000    -7.93857     2.24537
   163   1     4.12500    -8.73242    -2.24537
   164   2     4.12500    -0.79386     8.98146
   165   2     2.75000    -3.17543     8.98146
   166   2     1.37500    -3.96928    -8.98146
   167   2    -1.37500    -3.96928    -8.98146
   168   2     2.75000     3.17543    -8.98146
   169   2     8.25000     4.76314    -0.00000
   170   3     8.25000    -1.58771     4.49073
   171   2     8.25000     1.58771    -4.49073
   172   2     0.00000     9.52628    -0.00000
   173   2     2.75000     7.93857     4.49073
   174   2     5.50000     6.35085    -4.49073
   175   2    -2.75000     7.93857     4.49073
   176   2    -8.25000    -4.76314    -0.00000
   177   2    -8.25000    -1.58771     4.49073
   178   2    -8.25000     1.58771    -4.49073
   179   2     0.00000    -9.52628    -0.00000
   180   2    -5.50000    -6.35085     4.49073
   181   2    -2.75000    -7.93857    -4.49073
   182   2     8.25000    -4.76314    -0.00000
   183   2     5.50000    -6.35085     4.49073
   184   2     2.75000    -7.93857    -4.49073
   185   2     2.75000     1.58771     8.98146
   186   2     0.00000    -3.17543     8.98146
   187   2    -2.75000     1.58771     8.98146
   188   2     2.75000    -1.58771    -8.98146
   189   2    -2.75000    -1.58771    -8.98146
   190   2     0.00000     3.17543    -8.98146
   191   2     6.87500     7.14471    -0.00000
   192   2     6.87500    -2.38157     6.73610
   193   2     6.87500     2.38157    -6.73610
   194   2    -2.75000     9.52628    -0.00000
   195   2     1.37500     7.14471     6.73610
   196   2     5.50000     4.76314    -6.73610
   197   2    -1.37500     7.14471     6.73610
   198   3    -6.87500    -7.14471    -0.00000
   199   2    -6.87500    -2.38157     6.73610
   200   2    -6.87500     2.38157    -6.73610
   201   2     2.75000    -9.52628    -0.00000
   202   2    -5.50000    -4.76314     6.73610
   203   2    -1.37500    -7.14471    -6.73610
   204   2     1.37500    -7.14471    -6.73610
   205   2     1.37500     3.96928     8.98146
   206   2    -2.75000    -3.17543     8.98146
   207   3    -4.12500    -0.79386     8.98146
   208   2    -4.12500     0.79386    -8.98146
   209   2    -2.75000     3.17543    -8.98146
   210   2     8.25000     3.17543    -2.24537
   211   2    -6.87500     5.55700    -2.24537
   212   2    -8.25000    -3.17543     2.24537
   213   2    -1.37500    -8.73242    -2.24537
   214   2     6.87500    -5.55700     2.24537
   215   2     1.37500    -0.79386     8.98146
   216   2     0.00000    -1.58771    -8.98146
   217   2     6.87500     3.96928    -4.49073
   218   2     0.00000     7.93857     4.49073
   219   2    -6.87500     3.96928    -4.49073
   220   2    -6.87500    -3.96928     4.49073
   221   2     0.00000    -7.93857    -4.49073
   222   2     6.87500    -3.96928     4.49073
   223   2    -1.37500    -0.79386     8.98146
   224   2    -1.37500     0.79386    -8.98146
   225   2     8.25000     1.58771     2.24537
   226   2     2.75000     7.93857    -2.24537
   227   2    -5.50000     6.35085     2.24537
   228   2    -8.25000    -1.58771    -2.24537
   229   2    -2.75000    -7.93857     2.24537
   230   2     5.50000    -6.35085    -2.24537
   231   2     6.87500     0.79386     4.49073
   232   2    -4.12500     5.55700     4.49073
   233   2    -6.87500    -0.79386    -4.49073
   234   2    -2.75000    -6.35085     4.49073
   235   2     4.12500    -5.55700    -4.49073
   236   2     5.50000     0.00000     6.73610
   237   2     2.75000     4.76314    -6.73610
   238   2    -2.75000     4.76314     6.73610
   239   2    -5.50000     0.00000    -6.73610
   240   2    -2.75000    -4.76314     6.73610
   241   2     2.75000    -4.76314    -6.73610
   242   2     6.87500     5.55700    -2.24537
   243   2    -1.37500     8.73242     2.24537
   244   2    -8.25000     3.17543    -2.24537
   245   2    -6.87500    -5.55700     2.24537
   246   2     1.37500    -8.73242    -2.24537
   247   2     8.25000    -3.17543     2.24537
   248   2     0.00000     1.58771     8.98146
   249   2     1.37500     0.79386    -8.98146
   250   2     6.87500     3.96928     2.24537
   251   2     0.00000     7.93857    -2.24537
   252   2    -6.87500     3.96928     2.24537
   253   2    -6.87500    -3.96928    -2.24537
   254   2     0.00000    -7.93857     2.24537
   255   2     6.87500    -3.96928    -2.24537
   256   3     5.50000     3.17543     4.49073
   257   2     0.00000     6.35085    -4.49073
   258   2    -5.50000     3.17543     4.49073
   259   2    -5.50000    -3.17543    -4.49073
   260   2     0.00000    -6.35085     4.49073
   261   2     5.50000    -3.17543    -4.49073
   262   2     4.12500     2.38157     6.73610
   263   2     0.00000     4.76314    -6.73610
   264   2    -4.12500     2.38157     6.73610
   265   2    -4.12500    -2.38157    -6.73610
   266   2     0.00000    -4.76314     6.73610
   267   3     4.12500    -2.38157    -6.73610
   268   2     5.50000     6.35085     2.24537
   269   2    -2.75000     7.93857    -2.24537
   270   2    -8.25000     1.58771     2.24537
   271   2    -5.50000    -6.35085    -2.24537
   272   2     2.75000    -7.93857     2.24537
   273   1     8.25000    -1.58771    -2.24537
   274   2    -6.87500     0.79386     4.49073
   275   2    -4.12500    -5.55700    -4.49073
   276   2     2.75000    -6.35085     4.49073
   277   2     2.75000     4.76314     6.73610
   278   2    -5.50000     0.00000     6.73610
   279   1     2.75000    -4.76314     6.73610
   280   2     5.50000     0.00000    -6.73610
   281   2     6.87500    11.90785    -0.00000
   282   2   -13.75000     0.00000    -0.00000
   283   2    -6.87500   -11.90785    -0.00000
   284   2     6.87500   -11.90785    -0.00000
   285   2     6.87500    -3.96928    11.22683
   286   3     0.00000     7.93857    11.22683
   287   2    -6.87500    -3.96928    11.22683
   288   2     0.00000    -7.93857   -11.22683
   289   3     6.87500     3.96928   -11.22683
   290   2    12.37500     2.38157    -0.00000
   291   2    12.37500    -0.79386     2.24537
   292   3    12.37500     0.79386    -2.24537
   293   1     4.12500    11.90785    -0.00000
   294   2     5.50000    11.11399     2.24537
   295   2     6.87500    10.32014    -2.24537
   296   2    -8.25000     9.52628    -0.00000
   297   2    -5.50000    11.11399     2.24537
   298   2    -6.87500    10.32014    -2.24537
   299   2   -12.37500    -2.38157    -0.00000
   300   2   -12.37500    -0.79386     2.24537
   301   2   -12.37500     0.79386    -2.24537
   302   2    -4.12500   -11.90785    -0.00000
   303   2    -6.87500   -10.32014     2.24537
   304   2    -5.50000   -11.11399    -2.24537
   305   1     8.25000    -9.52628    -0.00000
   306   2     5.50000   -11.11399    -2.24537
   307   2     5.50000    -1.58771    11.22683
   308   2     4.12500    -3.96928    11.22683
   309   2    -1.37500     5.55700    11.22683
   310   2     1.37500    -5.55700   -11.22683
   311   1    -1.37500    -5.55700   -11.22683
   312   2     4.12500     3.96928   -11.22683
   313   1    11.00000     4.76314    -0.00000
   314   2    11.00000    -1.58771     4.49073
   315   2    11.00000     1.58771    -4.49073
   316   2     1.37500    11.90785    -0.00000
   317   2    -9.62500     7.14471    -0.00000
   318   2    -4.12500    10.32014     4.49073
   319   3    -6.87500     8.73242    -4.49073
   320   2   -11.00000    -4.76314    -0.00000
   321   2   -11.00000    -1.58771     4.49073
   322   2   -11.00000     1.58771    -4.49073
   323   2    -1.37500   -11.90785    -0.00000
   324   3    -6.87500    -8.73242     4.49073
   325   2    -4.12500   -10.32014    -4.49073
   326   2     9.62500    -7.14471    -0.00000
   327   2     6.87500    -8.73242     4.49073
   328   3     4.12500   -10.32014    -4.49073
   329   2     4.12500     0.79386    11.22683
   330   2     1.37500    -3.96928    11.22683
   331   2    -2.75000     3.17543    11.22683
   332   2     2.75000    -3.17543   -11.22683
   333   3    -2.75000    -3.17543   -11.22683
   334   2     1.37500     3.96928   -11.22683
   335   2     9.62500     2.38157    -6.73610
   336   2    -1.37500    11.90785    -0.00000
   337   2     2.75000     9.52628     6.73610
   338   2     6.87500     7.14471    -6.73610
   339   2   -11.00000     4.76314    -0.00000
   340   2    -2.75000     9.52628     6.73610
   341   3    -6.87500     7.14471    -6.73610
   342   2    -9.62500    -7.14471    -0.00000
   343   2    -9.62500    -2.38157     6.73610
   344   3    -9.62500     2.38157    -6.73610
   345   2     1.37500   -11.90785    -0.00000
   346   2    -6.87500    -7.14471     6.73610
   347   2    -2.75000    -9.52628    -6.73610
   348   2    11.00000    -4.76314    -0.00000
   349   2     6.87500    -7.14471     6.73610
   350   2     2.75000    -9.52628    -6.73610
   351   2    -1.37500    -3.96928    11.22683
   352   1    -4.12500     0.79386    11.22683
   353   2     4.12500    -0.79386   -11.22683
   354   2    -4.12500    -0.79386   -11.22683
   355   2    -1.37500     3.96928   -11.22683
   356   2     8.25000     9.52628    -0.00000
   357   2     8.25000     3.17543    -8.98146
   358   2    -4.12500    11.90785    -0.00000
   359   2     1.37500     8.73242     8.98146
   360   2     6.87500     5.55700    -8.98146
   361   2   -12.37500     2.38157    -0.00000
   362   2    -1.37500     8.73242     8.98146
   363   2    -8.25000    -9.52628    -0.00000
   364   2    -8.25000    -3.17543     8.98146
   365   2    -8.25000     3.17543    -8.98146
   366   2    -6.87500    -5.55700     8.98146
   367   2    -1.37500    -8.73242    -8.98146
   368   2    12.37500    -2.38157    -0.00000
   369   2     6.87500    -5.55700     8.98146
   370   2     1.37500    -8.73242    -8.98146
   371   2     1.37500     5.55700    11.22683
   372   2    -4.12500    -3.96928    11.22683
   373   2    -5.50000    -1.58771    11.22683
   374   2     5.50000     1.58771   -11.22683
   375   3    -5.50000     1.58771   -11.22683
   376   2    -4.12500     3.96928   -11.22683
   377   2    11.00000     3.17543    -2.24537
   378   2     2.75000    11.11399     2.24537
   379   2    -8.25000     7.93857    -2.24537
   380   2   -11.00000    -3.17543     2.24537
   381   2    -2.75000   -11.11399    -2.24537
   382   2     8.25000    -7.93857     2.24537
   383   2     2.75000    -1.58771    11.22683
   384   2     0.00000    -3.17543   -11.22683
   385   2     9.62500     3.96928    -4.49073
   386   2     1.37500    10.32014     4.49073
   387   2    -8.25000     6.35085    -4.49073
   388   2    -9.62500    -3.96928     4.49073
   389   3    -1.37500   -10.32014    -4.49073
   390   2     8.25000    -6.35085     4.49073
   391   2     0.00000    -1.58771    11.22683
   392   3    -1.37500    -0.79386   -11.22683
   393   2     8.25000     4.76314    -6.73610
   394   2    -8.25000     4.76314    -6.73610
   395   2    -8.25000    -4.76314     6.73610
   396   2     0.00000    -9.52628    -6.73610
   397   2     8.25000    -4.76314     6.73610
   398   2    -2.75000    -1.58771    11.22683
   399   2    -2.75000     1.58771   -11.22683
   400   2    -6.87500     8.73242     2.24537
   401   2   -11.00000    -1.58771    -2.24537
   402   2    -4.12500   -10.32014     2.24537
   403   2     6.87500    -8.73242    -2.24537
   404   2     9.62500     0.79386     4.49073
   405   2    -5.50000     7.93857     4.49073
   406   2    -9.62500    -0.79386    -4.49073
   407   2    -4.12500    -8.73242     4.49073
   408   2     5.50000    -7.93857    -4.49073
   409   2     8.25000     0.00000     6.73610
   410   2     4.12500     7.14471    -6.73610
   411   2    -4.12500     7.14471     6.73610
   412   3    -8.25000     0.00000    -6.73610
   413   2    -4.12500    -7.14471     6.73610
   414   2     4.12500    -7.14471    -6.73610
   415   2     6.87500    -0.79386     8.98146
   416   2     4.12500     5.55700    -8.98146
   417   2    -6.87500     0.79386    -8.98146
   418   2    -4.12500    -5.55700     8.98146
   419   2     9.62500     5.55700    -2.24537
   420   2     0.00000    11.11399     2.24537
   421   3    -9.62500     5.55700    -2.24537
   422   2     9.62500    -5.55700     2.24537
   423   2     1.37500     0.79386    11.22683
   424   2     1.37500    -0.79386   -11.22683
   425   2     8.25000     6.35085    -4.49073
   426   2    -1.37500    10.32014     4.49073
   427   2    -9.62500     3.96928    -4.49073
   428   2    -8.25000    -6.35085     4.49073
   429   2     1.37500   -10.32014    -4.49073
   430   2     9.62500    -3.96928     4.49073
   431   2    -1.37500     0.79386    11.22683
   432   1     0.00000     1.58771   -11.22683
   433   2     9.62500     3.96928     2.24537
   434   2     1.37500    10.32014    -2.24537
   435   2    -8.25000     6.35085     2.24537
   436   2    -9.62500    -3.96928    -2.24537
   437   2    -1.37500   -10.32014     2.24537
   438   2     8.25000    -6.35085    -2.24537
   439   2     8.25000     3.17543     4.49073
   440   3     1.37500     8.73242    -4.49073
   441   2    -6.87500     5.55700     4.49073
   442   1    -8.25000    -3.17543    -4.49073
   443   2    -1.37500    -8.73242     4.49073
   444   2     6.87500    -5.55700    -4.49073
   445   3     6.87500     2.38157     6.73610
   446   2     1.37500     7.14471    -6.73610
   447   2    -5.50000     4.76314     6.73610
   448   2    -1.37500    -7.14471     6.73610
   449   2     5.50000    -4.76314    -6.73610
   450   2     5.50000     1.58771     8.98146
   451   2    -4.12500     3.96928     8.98146
   452   2    -5.50000    -1.58771    -8.98146
   453   2     4.12500    -3.96928    -8.98146
   454   2     8.25000     7.93857    -2.24537
   455   2    -2.75000    11.11399     2.24537
   456   2   -11.00000     3.17543    -2.24537
   457   2    -8.25000    -7.93857     2.24537
   458   2    11.00000    -3.17543     2.24537
   459   1     0.00000     3.17543    11.22683
   460   2     2.75000     1.58771   -11.22683
   461   1    -1.37500    10.32014    -2.24537
   462   2    -9.62500     3.96928     2.24537
   463   2    -8.25000    -6.35085    -2.24537
   464   2     1.37500   -10.32014     2.24537
   465   2     9.62500    -3.96928    -2.24537
   466   1    -1.37500     8.73242    -4.49073
   467   2    -8.25000     3.17543     4.49073
   468   2    -6.87500    -5.55700    -4.49073
   469   2     1.37500    -8.73242     4.49073
   470   3     8.25000    -3.17543    -4.49073
   471   2     5.50000     4.76314     6.73610
   472   2    -1.37500     7.14471    -6.73610
   473   2    -6.87500     2.38157     6.73610
   474   2    -5.50000    -4.76314    -6.73610
   475   2     1.37500    -7.14471     6.73610
   476   2     6.87500    -2.38157    -6.73610
   477   2    -1.37500     5.55700    -8.98146
   478   2    -5.50000     1.58771     8.98146
   479   3    -4.12500    -3.96928    -8.98146
   480   2     1.37500    -5.55700     8.98146
   481   2     5.50000    -1.58771    -8.98146
   482   2     6.87500     8.73242     2.24537
   483   2   -11.00000     1.58771     2.24537
   484   2    -6.87500    -8.73242    -2.24537
   485   2    11.00000    -1.58771    -2.24537
   486   2     5.50000     7.93857     4.49073
   487   2    -4.12500     8.73242    -4.49073
   488   2    -9.62500     0.79386     4.49073
   489   1    -5.50000    -7.93857    -4.49073
   490   2     9.62500    -0.79386    -4.49073
   491   2     4.12500     7.14471     6.73610
   492   2    -4.12500     7.14471    -6.73610
   493   3    -8.25000     0.00000     6.73610
   494   1    -4.12500    -7.14471    -6.73610
   495   2     4.12500    -7.14471     6.73610
   496   2     8.25000     0.00000    -6.73610
   497   2     2.75000     6.35085     8.98146
   498   2    -4.12500     5.55700    -8.98146
   499   2    -6.87500    -0.79386     8.98146
   500   2    -2.75000    -6.35085    -8.98146
   501   2     6.87500     0.79386    -8.98146
   502   2    16.50000     0.00000    -0.00000
   503   1     8.25000    14.28942    -0.00000
   504   2    -8.25000    14.28942    -0.00000
   505   2   -16.50000     0.00000    -0.00000
   506   2    -8.25000   -14.28942    -0.00000
   507   2     8.25000   -14.28942    -0.00000
   508   2     8.25000    -4.76314    13.47219
   509   2     0.00000     9.52628    13.47219
   510   2    -8.25000    -4.76314    13.47219
   511   2     0.00000    -9.52628   -13.47219
   512   2     8.25000     4.76314   -13.47219
   513   2    -8.25000     4.76314   -13.47219
   514   2    15.12500     2.38157    -0.00000
   515   2    15.12500    -0.79386     2.24537
   516   2    15.12500     0.79386    -2.24537
   517   2     5.50000    14.28942    -0.00000
   518   2     6.87500    13.49556     2.24537
   519   2     8.25000    12.70171    -2.24537
   520   2    -9.62500    11.90785    -0.00000
   521   2    -6.87500    13.49556     2.24537
   522   2    -8.25000    12.70171    -2.24537
   523   3   -15.12500    -2.38157    -0.00000
   524   2   -15.12500    -0.79386     2.24537
   525   2    -5.50000   -14.28942    -0.00000
   526   2    -6.87500   -13.49556    -2.24537
   527   2     9.62500   -11.90785    -0.00000
   528   2     8.25000   -12.70171     2.24537
   529   2     6.87500   -13.49556    -2.24537
   530   2     6.87500    -2.38157    13.47219
   531   2     5.50000    -4.76314    13.47219
   532   2    -1.37500     7.14471    13.47219
   533   2     1.37500    -7.14471   -13.47219
   534   2    -1.37500    -7.14471   -13.47219
   535   2    13.75000     4.76314    -0.00000
   536   2    13.75000    -1.58771     4.49073
   537   2     2.75000    14.28942    -0.00000
   538   2     5.50000    12.70171     4.49073
   539   2     8.25000    11.11399    -4.49073
   540   2   -11.00000     9.52628    -0.00000
   541   1    -5.50000    12.70171     4.49073
   542   2    -8.25000    11.11399    -4.49073
   543   2   -13.75000    -4.76314    -0.00000
   544   2   -13.75000    -1.58771     4.49073
   545   2   -13.75000     1.58771    -4.49073
   546   2    -2.75000   -14.28942    -0.00000
   547   1    -5.50000   -12.70171    -4.49073
   548   2    11.00000    -9.52628    -0.00000
   549   2     8.25000   -11.11399     4.49073
   550   2     5.50000   -12.70171    -4.49073
   551   2     5.50000     0.00000    13.47219
   552   2     2.75000    -4.76314    13.47219
   553   2    -2.75000     4.76314    13.47219
   554   2     2.75000    -4.76314   -13.47219
   555   1    -2.75000    -4.76314   -13.47219
   556   2     2.75000     4.76314   -13.47219
   557   2    12.37500     7.14471    -0.00000
   558   2    12.37500    -2.38157     6.73610
   559   2     0.00000    14.28942    -0.00000
   560   2     4.12500    11.90785     6.73610
   561   2     8.25000     9.52628    -6.73610
   562   3   -12.37500     7.14471    -0.00000
   563   2    -4.12500    11.90785     6.73610
   564   2    -8.25000     9.52628    -6.73610
   565   2   -12.37500    -7.14471    -0.00000
   566   2   -12.37500    -2.38157     6.73610
   567   3     0.00000   -14.28942    -0.00000
   568   2    -8.25000    -9.52628     6.73610
   569   2    -4.12500   -11.90785    -6.73610
   570   2    12.37500    -7.14471    -0.00000
   571   3     8.25000    -9.52628     6.73610
   572   2     4.12500     2.38157    13.47219
   573   2     0.00000    -4.76314    13.47219
   574   2    -4.12500     2.38157    13.47219
   575   2     4.12500    -2.38157   -13.47219
   576   3    -4.12500    -2.38157   -13.47219
   577   2     0.00000     4.76314   -13.47219
   578   3    11.00000     9.52628    -0.00000
   579   2    11.00000    -3.17543     8.98146
   580   2    11.00000     3.17543    -8.98146
   581   2    -2.75000    14.28942    -0.00000
   582   2     2.75000    11.11399     8.98146
   583   2   -13.75000     4.76314    -0.00000
   584   2    -2.75000    11.11399     8.98146
   585   2    -8.25000     7.93857    -8.98146
   586   2   -11.00000    -9.52628    -0.00000
   587   2   -11.00000    -3.17543     8.98146
   588   2   -11.00000     3.17543    -8.98146
   589   2     2.75000   -14.28942    -0.00000
   590   1    -2.75000   -11.11399    -8.98146
   591   2    13.75000    -4.76314    -0.00000
   592   1     8.25000    -7.93857     8.98146
   593   2     2.75000   -11.11399    -8.98146
   594   1     2.75000     4.76314    13.47219
   595   2    -5.50000     0.00000    13.47219
   596   1     5.50000     0.00000   -13.47219
   597   2    -5.50000     0.00000   -13.47219
   598   2    -2.75000     4.76314   -13.47219
   599   2     9.62500    11.90785    -0.00000
   600   2     9.62500    -3.96928    11.22683
   601   2     9.62500     3.96928   -11.22683
   602   2    -5.50000    14.28942    -0.00000
   603   2     1.37500    10.32014    11.22683
   604   2     8.25000     6.35085   -11.22683
   605   2   -15.12500     2.38157    -0.00000
   606   2    -1.37500    10.32014    11.22683
   607   2    -8.25000     6.35085   -11.22683
   608   1    -9.62500   -11.90785    -0.00000
   609   2    -9.62500    -3.96928    11.22683
   610   2    -9.62500     3.96928   -11.22683
   611   2     5.50000   -14.28942    -0.00000
   612   1    -8.25000    -6.35085    11.22683
   613   1    -1.37500   -10.32014   -11.22683
   614   2    15.12500    -2.38157    -0.00000
   615   2     8.25000    -6.35085    11.22683
   616   3     1.37500   -10.32014   -11.22683
   617   3     1.37500     7.14471    13.47219
   618   2    -5.50000    -4.76314    13.47219
   619   2    -6.87500    -2.38157    13.47219
   620   2     6.87500     2.38157   -13.47219
   621   2    -6.87500     2.38157   -13.47219
   622   2    -5.50000     4.76314   -13.47219
   623   2    13.75000     3.17543    -2.24537
   624   2     4.12500    13.49556     2.24537
   625   2    -9.62500    10.32014    -2.24537
   626   2   -13.75000    -3.17543     2.24537
   627   2     9.62500   -10.32014     2.24537
   628   3     4.12500    -2.38157    13.47219
   629   2     0.00000    -4.76314   -13.47219
   630   2    12.37500     3.96928    -4.49073
   631   1     2.75000    12.70171     4.49073
   632   2    -9.62500     8.73242    -4.49073
   633   2   -12.37500    -3.96928     4.49073
   634   1    -2.75000   -12.70171    -4.49073