LAMMPS DATA FOR MEAM SIMULATION

   2891   atoms
      3   atom types

  -31.43   31.43   xlo xhi
  -31.43   31.43   ylo yhi
  -31.43   31.43   zlo zhi

 Atoms

     1   2     0.00000    -0.00000     0.00000
     2   2     2.75000    -0.00000     0.00000
     3   2     1.37500     2.38157     0.00000
     4   1    -1.37500     2.38157     0.00000
     5   3    -2.75000    -0.00000     0.00000
     6   2    -1.37500    -2.38157     0.00000
     7   2     1.37500    -2.38157     0.00000
     8   2     0.00000     1.58771     2.24537
     9   2    -1.37500    -0.79386     2.24537
    10   2     0.00000    -1.58771    -2.24537
    11   3     1.37500     0.79386    -2.24537
    12   2    -1.37500     0.79386    -2.24537
    13   2     5.50000    -0.00000     0.00000
    14   2     2.75000     4.76314     0.00000
    15   2    -2.75000     4.76314     0.00000
    16   2    -5.50000    -0.00000     0.00000
    17   2    -2.75000    -4.76314     0.00000
    18   2     2.75000    -4.76314     0.00000
    19   2     2.75000    -1.58771     4.49073
    20   1     0.00000     3.17543     4.49073
    21   1     0.00000    -3.17543    -4.49073
    22   2     2.75000     1.58771    -4.49073
    23   2    -2.75000     1.58771    -4.49073
    24   2     4.12500     2.38157     0.00000
    25   1     4.12500    -0.79386     2.24537
    26   3     4.12500     0.79386    -2.24537
    27   2     0.00000     4.76314     0.00000
    28   2     1.37500     3.96928     2.24537
    29   2     2.75000     3.17543    -2.24537
    30   2    -4.12500     2.38157     0.00000
    31   2    -1.37500     3.96928     2.24537
    32   2    -2.75000     3.17543    -2.24537
    33   1    -4.12500    -2.38157     0.00000
    34   2    -4.12500     0.79386    -2.24537
    35   2     0.00000    -4.76314     0.00000
    36   2    -2.75000    -3.17543     2.24537
    37   2    -1.37500    -3.96928    -2.24537
    38   2     4.12500    -2.38157     0.00000
    39   2     2.75000    -3.17543     2.24537
    40   2     1.37500    -3.96928    -2.24537
    41   2     1.37500     0.79386     4.49073
    42   2     0.00000    -1.58771     4.49073
    43   1    -1.37500     0.79386     4.49073
    44   2     1.37500    -0.79386    -4.49073
    45   2    -1.37500    -0.79386    -4.49073
    46   2     0.00000     1.58771    -4.49073
    47   2     2.75000     1.58771     2.24537
    48   2     0.00000     3.17543    -2.24537
    49   2    -2.75000     1.58771     2.24537
    50   2    -2.75000    -1.58771    -2.24537
    51   2     2.75000    -1.58771    -2.24537
    52   1     8.25000    -0.00000     0.00000
    53   2     4.12500     7.14471     0.00000
    54   2    -4.12500     7.14471     0.00000
    55   2    -8.25000    -0.00000     0.00000
    56   2    -4.12500    -7.14471     0.00000
    57   2     4.12500    -7.14471     0.00000
    58   2     4.12500    -2.38157     6.73610
    59   1     0.00000     4.76314     6.73610
    60   2    -4.12500    -2.38157     6.73610
    61   3     0.00000    -4.76314    -6.73610
    62   2     4.12500     2.38157    -6.73610
    63   2    -4.12500     2.38157    -6.73610
    64   3     6.87500     2.38157     0.00000
    65   2     6.87500    -0.79386     2.24537
    66   2     6.87500     0.79386    -2.24537
    67   2     1.37500     7.14471     0.00000
    68   2     2.75000     6.35085     2.24537
    69   2     4.12500     5.55700    -2.24537
    70   2    -5.50000     4.76314     0.00000
    71   2    -2.75000     6.35085     2.24537
    72   3    -4.12500     5.55700    -2.24537
    73   1    -6.87500    -2.38157     0.00000
    74   2    -6.87500    -0.79386     2.24537
    75   2    -6.87500     0.79386    -2.24537
    76   2    -1.37500    -7.14471     0.00000
    77   2    -4.12500    -5.55700     2.24537
    78   2    -2.75000    -6.35085    -2.24537
    79   1     5.50000    -4.76314     0.00000
    80   2     4.12500    -5.55700     2.24537
    81   2     2.75000    -0.00000     6.73610
    82   2     1.37500    -2.38157     6.73610
    83   2    -1.37500     2.38157     6.73610
    84   3     1.37500    -2.38157    -6.73610
    85   2    -1.37500    -2.38157    -6.73610
    86   2     1.37500     2.38157    -6.73610
    87   2     5.50000     4.76314     0.00000
    88   2     5.50000    -1.58771     4.49073
    89   2     5.50000     1.58771    -4.49073
    90   2    -1.37500     7.14471     0.00000
    91   2     1.37500     5.55700     4.49073
    92   1     4.12500     3.96928    -4.49073
    93   2    -6.87500     2.38157     0.00000
    94   2    -1.37500     5.55700     4.49073
    95   1    -4.12500     3.96928    -4.49073
    96   2    -5.50000    -4.76314     0.00000
    97   2    -5.50000    -1.58771     4.49073
    98   2    -5.50000     1.58771    -4.49073
    99   2     1.37500    -7.14471     0.00000
   100   2    -4.12500    -3.96928     4.49073
   101   2    -1.37500    -5.55700    -4.49073
   102   2     6.87500    -2.38157     0.00000
   103   2     4.12500    -3.96928     4.49073
   104   2     1.37500    -5.55700    -4.49073
   105   2     1.37500     2.38157     6.73610
   106   2    -1.37500    -2.38157     6.73610
   107   3    -2.75000    -0.00000     6.73610
   108   2     2.75000    -0.00000    -6.73610
   109   2    -2.75000    -0.00000    -6.73610
   110   2    -1.37500     2.38157    -6.73610
   111   2     5.50000     3.17543    -2.24537
   112   2     0.00000     6.35085     2.24537
   113   2    -5.50000     3.17543    -2.24537
   114   2    -5.50000    -3.17543     2.24537
   115   2     0.00000    -6.35085    -2.24537
   116   2     5.50000    -3.17543     2.24537
   117   2     0.00000    -0.00000     6.73610
   118   2     0.00000    -0.00000    -6.73610
   119   2     5.50000     1.58771     2.24537
   120   2     1.37500     5.55700    -2.24537
   121   2    -4.12500     3.96928     2.24537
   122   2    -5.50000    -1.58771    -2.24537
   123   2    -1.37500    -5.55700     2.24537
   124   2     4.12500    -3.96928    -2.24537
   125   2     4.12500     0.79386     4.49073
   126   2     1.37500     3.96928    -4.49073
   127   2    -2.75000     3.17543     4.49073
   128   2    -4.12500    -0.79386    -4.49073
   129   2    -1.37500    -3.96928     4.49073
   130   2     4.12500     3.96928     2.24537
   131   1    -5.50000     1.58771     2.24537
   132   2    -4.12500    -3.96928    -2.24537
   133   3     1.37500    -5.55700     2.24537
   134   2     5.50000    -1.58771    -2.24537
   135   2     2.75000     3.17543     4.49073
   136   2    -1.37500     3.96928    -4.49073
   137   2    -4.12500     0.79386     4.49073
   138   2    -2.75000    -3.17543    -4.49073
   139   1     1.37500    -3.96928     4.49073
   140   2     4.12500    -0.79386    -4.49073
   141   2    11.00000    -0.00000     0.00000
   142   2     5.50000     9.52628     0.00000
   143   2    -5.50000     9.52628     0.00000
   144   2   -11.00000    -0.00000     0.00000
   145   2     5.50000    -9.52628     0.00000
   146   2     5.50000    -3.17543     8.98146
   147   2     0.00000     6.35085     8.98146
   148   2    -5.50000    -3.17543     8.98146
   149   2     0.00000    -6.35085    -8.98146
   150   2     5.50000     3.17543    -8.98146
   151   2     9.62500     2.38157     0.00000
   152   2     9.62500     0.79386    -2.24537
   153   2     2.75000     9.52628     0.00000
   154   2     4.12500     8.73242     2.24537
   155   2     5.50000     7.93857    -2.24537
   156   2    -6.87500     7.14471     0.00000
   157   2    -4.12500     8.73242     2.24537
   158   2    -5.50000     7.93857    -2.24537
   159   2    -9.62500    -2.38157     0.00000
   160   3    -9.62500    -0.79386     2.24537
   161   2    -9.62500     0.79386    -2.24537
   162   2    -2.75000    -9.52628     0.00000
   163   2    -5.50000    -7.93857     2.24537
   164   2    -4.12500    -8.73242    -2.24537
   165   3     6.87500    -7.14471     0.00000
   166   2     5.50000    -7.93857     2.24537
   167   2     4.12500    -8.73242    -2.24537
   168   1     4.12500    -0.79386     8.98146
   169   2     2.75000    -3.17543     8.98146
   170   2    -1.37500     3.96928     8.98146
   171   2     1.37500    -3.96928    -8.98146
   172   2    -1.37500    -3.96928    -8.98146
   173   2     2.75000     3.17543    -8.98146
   174   2     8.25000     4.76314     0.00000
   175   2     8.25000    -1.58771     4.49073
   176   2     8.25000     1.58771    -4.49073
   177   2     0.00000     9.52628     0.00000
   178   2     2.75000     7.93857     4.49073
   179   2     5.50000     6.35085    -4.49073
   180   2    -8.25000     4.76314     0.00000
   181   2    -5.50000     6.35085    -4.49073
   182   2    -8.25000    -4.76314     0.00000
   183   2    -8.25000    -1.58771     4.49073
   184   2    -8.25000     1.58771    -4.49073
   185   2     0.00000    -9.52628     0.00000
   186   1    -5.50000    -6.35085     4.49073
   187   2    -2.75000    -7.93857    -4.49073
   188   2     8.25000    -4.76314     0.00000
   189   2     5.50000    -6.35085     4.49073
   190   2     2.75000    -7.93857    -4.49073
   191   2     2.75000     1.58771     8.98146
   192   3     0.00000    -3.17543     8.98146
   193   2    -2.75000     1.58771     8.98146
   194   2     2.75000    -1.58771    -8.98146
   195   2    -2.75000    -1.58771    -8.98146
   196   2     0.00000     3.17543    -8.98146
   197   2     6.87500    -2.38157     6.73610
   198   2     6.87500     2.38157    -6.73610
   199   2    -2.75000     9.52628     0.00000
   200   2     1.37500     7.14471     6.73610
   201   2     5.50000     4.76314    -6.73610
   202   2    -9.62500     2.38157     0.00000
   203   2    -1.37500     7.14471     6.73610
   204   2    -5.50000     4.76314    -6.73610
   205   2    -6.87500    -7.14471     0.00000
   206   2    -6.87500    -2.38157     6.73610
   207   2    -6.87500     2.38157    -6.73610
   208   2     2.75000    -9.52628     0.00000
   209   1    -5.50000    -4.76314     6.73610
   210   2    -1.37500    -7.14471    -6.73610
   211   1     9.62500    -2.38157     0.00000
   212   1     5.50000    -4.76314     6.73610
   213   2     1.37500    -7.14471    -6.73610
   214   2     1.37500     3.96928     8.98146
   215   2    -2.75000    -3.17543     8.98146
   216   2    -4.12500    -0.79386     8.98146
   217   2     4.12500     0.79386    -8.98146
   218   2    -4.12500     0.79386    -8.98146
   219   2    -2.75000     3.17543    -8.98146
   220   2     8.25000     3.17543    -2.24537
   221   2    -6.87500     5.55700    -2.24537
   222   2    -8.25000    -3.17543     2.24537
   223   2    -1.37500    -8.73242    -2.24537
   224   2     6.87500    -5.55700     2.24537
   225   2     1.37500    -0.79386     8.98146
   226   2     0.00000    -1.58771    -8.98146
   227   2     6.87500     3.96928    -4.49073
   228   2     0.00000     7.93857     4.49073
   229   2    -6.87500     3.96928    -4.49073
   230   2    -6.87500    -3.96928     4.49073
   231   2     0.00000    -7.93857    -4.49073
   232   2     6.87500    -3.96928     4.49073
   233   2    -1.37500    -0.79386     8.98146
   234   3    -1.37500     0.79386    -8.98146
   235   2     8.25000     1.58771     2.24537
   236   2     2.75000     7.93857    -2.24537
   237   2    -5.50000     6.35085     2.24537
   238   2    -8.25000    -1.58771    -2.24537
   239   2    -2.75000    -7.93857     2.24537
   240   2     5.50000    -6.35085    -2.24537
   241   2     6.87500     0.79386     4.49073
   242   2     2.75000     6.35085    -4.49073
   243   2    -4.12500     5.55700     4.49073
   244   2    -6.87500    -0.79386    -4.49073
   245   2    -2.75000    -6.35085     4.49073
   246   2     4.12500    -5.55700    -4.49073
   247   2     5.50000    -0.00000     6.73610
   248   2     2.75000     4.76314    -6.73610
   249   2    -2.75000     4.76314     6.73610
   250   1    -2.75000    -4.76314     6.73610
   251   1     6.87500     5.55700    -2.24537
   252   2    -1.37500     8.73242     2.24537
   253   2    -8.25000     3.17543    -2.24537
   254   2    -6.87500    -5.55700     2.24537
   255   2     1.37500    -8.73242    -2.24537
   256   2     8.25000    -3.17543     2.24537
   257   2     0.00000     1.58771     8.98146
   258   2     1.37500     0.79386    -8.98146
   259   2     6.87500     3.96928     2.24537
   260   2     0.00000     7.93857    -2.24537
   261   2    -6.87500     3.96928     2.24537
   262   3    -6.87500    -3.96928    -2.24537
   263   2     0.00000    -7.93857     2.24537
   264   2     6.87500    -3.96928    -2.24537
   265   2     5.50000     3.17543     4.49073
   266   2     0.00000     6.35085    -4.49073
   267   2    -5.50000     3.17543     4.49073
   268   2    -5.50000    -3.17543    -4.49073
   269   2     0.00000    -6.35085     4.49073
   270   2     5.50000    -3.17543    -4.49073
   271   1     4.12500     2.38157     6.73610
   272   2     0.00000     4.76314    -6.73610
   273   1    -4.12500     2.38157     6.73610
   274   2    -4.12500    -2.38157    -6.73610
   275   2     0.00000    -4.76314     6.73610
   276   2     4.12500    -2.38157    -6.73610
   277   2     5.50000     6.35085     2.24537
   278   3    -2.75000     7.93857    -2.24537
   279   2    -5.50000    -6.35085    -2.24537
   280   3     2.75000    -7.93857     2.24537
   281   2     8.25000    -1.58771    -2.24537
   282   2     4.12500     5.55700     4.49073
   283   2    -2.75000     6.35085    -4.49073
   284   2    -6.87500     0.79386     4.49073
   285   2    -4.12500    -5.55700    -4.49073
   286   2     2.75000    -6.35085     4.49073
   287   2     6.87500    -0.79386    -4.49073
   288   2     2.75000     4.76314     6.73610
   289   2    -2.75000     4.76314    -6.73610
   290   2    -5.50000    -0.00000     6.73610
   291   2    -2.75000    -4.76314    -6.73610
   292   2     2.75000    -4.76314     6.73610
   293   2     5.50000    -0.00000    -6.73610
   294   2    13.75000    -0.00000     0.00000
   295   2     6.87500    11.90785     0.00000
   296   2    -6.87500    11.90785     0.00000
   297   1   -13.75000    -0.00000     0.00000
   298   3    -6.87500   -11.90785     0.00000
   299   2     6.87500   -11.90785     0.00000
   300   2     6.87500    -3.96928    11.22683
   301   2     0.00000     7.93857    11.22683
   302   2    -6.87500    -3.96928    11.22683
   303   2     0.00000    -7.93857   -11.22683
   304   2     6.87500     3.96928   -11.22683
   305   2    -6.87500     3.96928   -11.22683
   306   3    12.37500     2.38157     0.00000
   307   2    12.37500    -0.79386     2.24537
   308   2    12.37500     0.79386    -2.24537
   309   2     4.12500    11.90785     0.00000
   310   2     5.50000    11.11399     2.24537
   311   2     6.87500    10.32014    -2.24537
   312   2    -8.25000     9.52628     0.00000
   313   2    -5.50000    11.11399     2.24537
   314   2    -6.87500    10.32014    -2.24537
   315   2   -12.37500    -2.38157     0.00000
   316   2   -12.37500    -0.79386     2.24537
   317   2   -12.37500     0.79386    -2.24537
   318   1    -6.87500   -10.32014     2.24537
   319   2    -5.50000   -11.11399    -2.24537
   320   2     8.25000    -9.52628     0.00000
   321   2     6.87500   -10.32014     2.24537
   322   2     5.50000   -11.11399    -2.24537
   323   3     4.12500    -3.96928    11.22683
   324   2    -1.37500     5.55700    11.22683
   325   2     1.37500    -5.55700   -11.22683
   326   2    -1.37500    -5.55700   -11.22683
   327   2     4.12500     3.96928   -11.22683
   328   2    11.00000     4.76314     0.00000
   329   2    11.00000    -1.58771     4.49073
   330   2    11.00000     1.58771    -4.49073
   331   2     1.37500    11.90785     0.00000
   332   2     4.12500    10.32014     4.49073
   333   3     6.87500     8.73242    -4.49073
   334   2    -9.62500     7.14471     0.00000
   335   2    -4.12500    10.32014     4.49073
   336   2    -6.87500     8.73242    -4.49073
   337   2   -11.00000    -4.76314     0.00000
   338   2   -11.00000    -1.58771     4.49073
   339   2   -11.00000     1.58771    -4.49073
   340   2    -1.37500   -11.90785     0.00000
   341   1    -6.87500    -8.73242     4.49073
   342   2    -4.12500   -10.32014    -4.49073
   343   3     9.62500    -7.14471     0.00000
   344   2     6.87500    -8.73242     4.49073
   345   2     4.12500   -10.32014    -4.49073
   346   2     4.12500     0.79386    11.22683
   347   2     1.37500    -3.96928    11.22683
   348   2    -2.75000     3.17543    11.22683
   349   2     2.75000    -3.17543   -11.22683
   350   2    -2.75000    -3.17543   -11.22683
   351   2     1.37500     3.96928   -11.22683
   352   2     9.62500     7.14471     0.00000
   353   2     9.62500    -2.38157     6.73610
   354   3     9.62500     2.38157    -6.73610
   355   2    -1.37500    11.90785     0.00000
   356   2     2.75000     9.52628     6.73610
   357   2     6.87500     7.14471    -6.73610
   358   2   -11.00000     4.76314     0.00000
   359   2    -2.75000     9.52628     6.73610
   360   2    -6.87500     7.14471    -6.73610
   361   3    -9.62500    -7.14471     0.00000
   362   1    -9.62500    -2.38157     6.73610
   363   2    -9.62500     2.38157    -6.73610
   364   2     1.37500   -11.90785     0.00000
   365   2    -6.87500    -7.14471     6.73610
   366   2    -2.75000    -9.52628    -6.73610
   367   2    11.00000    -4.76314     0.00000
   368   2     6.87500    -7.14471     6.73610
   369   2     2.75000    -9.52628    -6.73610
   370   3     2.75000     3.17543    11.22683
   371   2    -1.37500    -3.96928    11.22683
   372   2    -4.12500     0.79386    11.22683
   373   2     4.12500    -0.79386   -11.22683
   374   2    -4.12500    -0.79386   -11.22683
   375   2    -1.37500     3.96928   -11.22683
   376   2     8.25000     9.52628     0.00000
   377   2     8.25000    -3.17543     8.98146
   378   1     8.25000     3.17543    -8.98146
   379   2    -4.12500    11.90785     0.00000
   380   2     1.37500     8.73242     8.98146
   381   2   -12.37500     2.38157     0.00000
   382   2    -8.25000    -9.52628     0.00000
   383   2    -8.25000    -3.17543     8.98146
   384   2    -8.25000     3.17543    -8.98146
   385   2     4.12500   -11.90785     0.00000
   386   2    -6.87500    -5.55700     8.98146
   387   2    -1.37500    -8.73242    -8.98146
   388   2    12.37500    -2.38157     0.00000
   389   2     1.37500     5.55700    11.22683
   390   1    -4.12500    -3.96928    11.22683
   391   2    -5.50000    -1.58771    11.22683
   392   2     5.50000     1.58771   -11.22683
   393   1    -5.50000     1.58771   -11.22683
   394   2    -4.12500     3.96928   -11.22683
   395   2    11.00000     3.17543    -2.24537
   396   2     2.75000    11.11399     2.24537
   397   2    -8.25000     7.93857    -2.24537
   398   2   -11.00000    -3.17543     2.24537
   399   3    -2.75000   -11.11399    -2.24537
   400   2     8.25000    -7.93857     2.24537
   401   3     2.75000    -1.58771    11.22683
   402   2     0.00000    -3.17543   -11.22683
   403   3     9.62500     3.96928    -4.49073
   404   2     1.37500    10.32014     4.49073
   405   2    -8.25000     6.35085    -4.49073
   406   3    -9.62500    -3.96928     4.49073
   407   2    -1.37500   -10.32014    -4.49073
   408   2     8.25000    -6.35085     4.49073
   409   2     0.00000    -1.58771    11.22683
   410   3    -1.37500    -0.79386   -11.22683
   411   1     8.25000     4.76314    -6.73610
   412   2     0.00000     9.52628     6.73610
   413   2    -8.25000     4.76314    -6.73610
   414   2    -8.25000    -4.76314     6.73610
   415   2     0.00000    -9.52628    -6.73610
   416   2     8.25000    -4.76314     6.73610
   417   2    -2.75000    -1.58771    11.22683
   418   2    -2.75000     1.58771   -11.22683
   419   3    11.00000     1.58771     2.24537
   420   3     4.12500    10.32014    -2.24537
   421   2    -6.87500     8.73242     2.24537
   422   2   -11.00000    -1.58771    -2.24537
   423   2    -4.12500   -10.32014     2.24537
   424   2     6.87500    -8.73242    -2.24537
   425   1     9.62500     0.79386     4.49073
   426   2     4.12500     8.73242    -4.49073
   427   2    -5.50000     7.93857     4.49073
   428   2    -9.62500    -0.79386    -4.49073
   429   2    -4.12500    -8.73242     4.49073
   430   3     5.50000    -7.93857    -4.49073
   431   2     8.25000    -0.00000     6.73610
   432   2     4.12500     7.14471    -6.73610
   433   2    -4.12500     7.14471     6.73610
   434   2    -8.25000    -0.00000    -6.73610
   435   2    -4.12500    -7.14471     6.73610
   436   3     4.12500    -7.14471    -6.73610
   437   2     6.87500    -0.79386     8.98146
   438   2     4.12500     5.55700    -8.98146
   439   2    -2.75000     6.35085     8.98146
   440   2    -6.87500     0.79386    -8.98146
   441   2    -4.12500    -5.55700     8.98146
   442   2     2.75000    -6.35085    -8.98146
   443   1     9.62500     5.55700    -2.24537
   444   2     0.00000    11.11399     2.24537
   445   2    -9.62500     5.55700    -2.24537
   446   1    -9.62500    -5.55700     2.24537
   447   2     0.00000   -11.11399    -2.24537
   448   2     9.62500    -5.55700     2.24537
   449   2     1.37500     0.79386    11.22683
   450   2     1.37500    -0.79386   -11.22683
   451   2     8.25000     6.35085    -4.49073
   452   1    -1.37500    10.32014     4.49073
   453   3    -9.62500     3.96928    -4.49073
   454   2    -8.25000    -6.35085     4.49073
   455   2     1.37500   -10.32014    -4.49073
   456   1    -1.37500     0.79386    11.22683
   457   2     0.00000     1.58771   -11.22683
   458   2     9.62500     3.96928     2.24537
   459   2     1.37500    10.32014    -2.24537
   460   2    -8.25000     6.35085     2.24537
   461   2    -9.62500    -3.96928    -2.24537
   462   3    -1.37500   -10.32014     2.24537
   463   2     8.25000    -6.35085    -2.24537
   464   2     8.25000     3.17543     4.49073
   465   2     1.37500     8.73242    -4.49073
   466   2    -6.87500     5.55700     4.49073
   467   2    -1.37500    -8.73242     4.49073
   468   1     6.87500    -5.55700    -4.49073
   469   2     6.87500     2.38157     6.73610
   470   2    -5.50000     4.76314     6.73610
   471   2    -1.37500    -7.14471     6.73610
   472   2     5.50000    -4.76314    -6.73610
   473   2     5.50000     1.58771     8.98146
   474   2     1.37500     5.55700    -8.98146
   475   2    -4.12500     3.96928     8.98146
   476   2    -5.50000    -1.58771    -8.98146
   477   2    -1.37500    -5.55700     8.98146
   478   2     4.12500    -3.96928    -8.98146
   479   2     8.25000     7.93857    -2.24537
   480   2    -2.75000    11.11399     2.24537
   481   2   -11.00000     3.17543    -2.24537
   482   2    -8.25000    -7.93857     2.24537
   483   2     2.75000   -11.11399    -2.24537
   484   2    11.00000    -3.17543     2.24537
   485   2     0.00000     3.17543    11.22683
   486   2     2.75000     1.58771   -11.22683
   487   2     8.25000     6.35085     2.24537
   488   2    -1.37500    10.32014    -2.24537
   489   2    -9.62500     3.96928     2.24537
   490   2    -8.25000    -6.35085    -2.24537
   491   2     1.37500   -10.32014     2.24537
   492   3     9.62500    -3.96928    -2.24537
   493   2     6.87500     5.55700     4.49073
   494   2    -1.37500     8.73242    -4.49073
   495   2    -8.25000     3.17543     4.49073
   496   2    -6.87500    -5.55700    -4.49073
   497   2     1.37500    -8.73242     4.49073
   498   2     8.25000    -3.17543    -4.49073
   499   2     5.50000     4.76314     6.73610
   500   2    -1.37500     7.14471    -6.73610
   501   2    -6.87500     2.38157     6.73610
   502   2    -5.50000    -4.76314    -6.73610
   503   2     1.37500    -7.14471     6.73610
   504   2     4.12500     3.96928     8.98146
   505   1    -1.37500     5.55700    -8.98146
   506   2    -5.50000     1.58771     8.98146
   507   2    -4.12500    -3.96928    -8.98146
   508   2     1.37500    -5.55700     8.98146
   509   2     5.50000    -1.58771    -8.98146
   510   3     6.87500     8.73242     2.24537
   511   2    -4.12500    10.32014    -2.24537
   512   2   -11.00000     1.58771     2.24537
   513   2    -6.87500    -8.73242    -2.24537
   514   2     4.12500   -10.32014     2.24537
   515   2    11.00000    -1.58771    -2.24537
   516   2     5.50000     7.93857     4.49073
   517   2    -4.12500     8.73242    -4.49073
   518   2    -9.62500     0.79386     4.49073
   519   2    -5.50000    -7.93857    -4.49073
   520   2     4.12500    -8.73242     4.49073
   521   2     9.62500    -0.79386    -4.49073
   522   3     4.12500     7.14471     6.73610
   523   2    -4.12500     7.14471    -6.73610
   524   2    -8.25000    -0.00000     6.73610
   525   2    -4.12500    -7.14471    -6.73610
   526   2     4.12500    -7.14471     6.73610
   527   2     8.25000    -0.00000    -6.73610
   528   2     2.75000     6.35085     8.98146
   529   2    -4.12500     5.55700    -8.98146
   530   2    -6.87500    -0.79386     8.98146
   531   2    -2.75000    -6.35085    -8.98146
   532   2     4.12500    -5.55700     8.98146
   533   1     6.87500     0.79386    -8.98146
   534   3    16.50000    -0.00000     0.00000
   535   2     8.25000    14.28942     0.00000
   536   2    -8.25000    14.28942     0.00000
   537   2   -16.50000    -0.00000     0.00000
   538   2    -8.25000   -14.28942     0.00000
   539   2     8.25000   -14.28942     0.00000
   540   2     8.25000    -4.76314    13.47219
   541   2     0.00000     9.52628    13.47219
   542   1    -8.25000    -4.76314    13.47219
   543   1     0.00000    -9.52628   -13.47219
   544   2     8.25000     4.76314   -13.47219
   545   2    -8.25000     4.76314   -13.47219
   546   2    15.12500     2.38157     0.00000
   547   1    15.12500    -0.79386     2.24537
   548   2    15.12500     0.79386    -2.24537
   549   1     5.50000    14.28942     0.00000
   550   2     6.87500    13.49556     2.24537
   551   3     8.25000    12.70171    -2.24537
   552   2    -9.62500    11.90785     0.00000
   553   2    -6.87500    13.49556     2.24537
   554   2    -8.25000    12.70171    -2.24537
   555   2   -15.12500    -2.38157     0.00000
   556   2   -15.12500    -0.79386     2.24537
   557   3   -15.12500     0.79386    -2.24537
   558   2    -5.50000   -14.28942     0.00000
   559   2    -8.25000   -12.70171     2.24537
   560   1    -6.87500   -13.49556    -2.24537
   561   2     9.62500   -11.90785     0.00000
   562   2     8.25000   -12.70171     2.24537
   563   2     6.87500   -13.49556    -2.24537
   564   2     6.87500    -2.38157    13.47219
   565   2     5.50000    -4.76314    13.47219
   566   2    -1.37500     7.14471    13.47219
   567   2     1.37500    -7.14471   -13.47219
   568   2    -1.37500    -7.14471   -13.47219
   569   2     5.50000     4.76314   -13.47219
   570   2    13.75000     4.76314     0.00000
   571   2    13.75000    -1.58771     4.49073
   572   2    13.75000     1.58771    -4.49073
   573   2     2.75000    14.28942     0.00000
   574   2     5.50000    12.70171     4.49073
   575   2     8.25000    11.11399    -4.49073
   576   2   -11.00000     9.52628     0.00000
   577   1    -5.50000    12.70171     4.49073
   578   2    -8.25000    11.11399    -4.49073
   579   2   -13.75000    -4.76314     0.00000
   580   2   -13.75000    -1.58771     4.49073
   581   2   -13.75000     1.58771    -4.49073
   582   2    -2.75000   -14.28942     0.00000
   583   2    -8.25000   -11.11399     4.49073
   584   1    -5.50000   -12.70171    -4.49073
   585   2    11.00000    -9.52628     0.00000
   586   2     8.25000   -11.11399     4.49073
   587   2     5.50000   -12.70171    -4.49073
   588   1     5.50000    -0.00000    13.47219
   589   2     2.75000    -4.76314    13.47219
   590   2     2.75000    -4.76314   -13.47219
   591   2    -2.75000    -4.76314   -13.47219
   592   2     2.75000     4.76314   -13.47219
   593   2    12.37500     7.14471     0.00000
   594   2    12.37500    -2.38157     6.73610
   595   2    12.37500     2.38157    -6.73610
   596   2     0.00000    14.28942     0.00000
   597   2     4.12500    11.90785     6.73610
   598   2     8.25000     9.52628    -6.73610
   599   1   -12.37500     7.14471     0.00000
   600   2    -4.12500    11.90785     6.73610
   601   2    -8.25000     9.52628    -6.73610
   602   2   -12.37500    -7.14471     0.00000
   603   2   -12.37500    -2.38157     6.73610
   604   2   -12.37500     2.38157    -6.73610
   605   1     0.00000   -14.28942     0.00000
   606   2    -8.25000    -9.52628     6.73610
   607   2    -4.12500   -11.90785    -6.73610
   608   1    12.37500    -7.14471     0.00000
   609   2     8.25000    -9.52628     6.73610
   610   2     4.12500   -11.90785    -6.73610
   611   2     4.12500     2.38157    13.47219
   612   2     0.00000    -4.76314    13.47219
   613   2    -4.12500     2.38157    13.47219
   614   2     4.12500    -2.38157   -13.47219
   615   2    -4.12500    -2.38157   -13.47219
   616   2     0.00000     4.76314   -13.47219
   617   2    11.00000     9.52628     0.00000
   618   2    11.00000    -3.17543     8.98146
   619   2    11.00000     3.17543    -8.98146
   620   2    -2.75000    14.28942     0.00000
   621   1     2.75000    11.11399     8.98146
   622   2     8.25000     7.93857    -8.98146
   623   1   -13.75000     4.76314     0.00000
   624   2    -2.75000    11.11399     8.98146
   625   3    -8.25000     7.93857    -8.98146
   626   3   -11.00000    -9.52628     0.00000
   627   2   -11.00000    -3.17543     8.98146
   628   3     2.75000   -14.28942     0.00000
   629   2    -8.25000    -7.93857     8.98146
   630   2    -2.75000   -11.11399    -8.98146
   631   1    13.75000    -4.76314     0.00000
   632   2     8.25000    -7.93857     8.98146
   633   2     2.75000   -11.11399    -8.98146
   634   3     2.75000     4.76314    13.47219