LAMMPS DATA FOR MEAM SIMULATION

   3798   atoms
      3   atom types

  -33.82   33.82   xlo xhi
  -33.82   33.82   ylo yhi
  -33.82   33.82   zlo zhi

 Atoms

     1   2     0.00000     0.00000    -0.00000
     2   2     2.75000     0.00000    -0.00000
     3   2    -1.37500     2.38157    -0.00000
     4   2    -2.75000     0.00000    -0.00000
     5   2    -1.37500    -2.38157    -0.00000
     6   2     1.37500    -2.38157    -0.00000
     7   2     1.37500    -0.79386     2.24537
     8   3     0.00000     1.58771     2.24537
     9   2    -1.37500    -0.79386     2.24537
    10   2     0.00000    -1.58771    -2.24537
    11   2     1.37500     0.79386    -2.24537
    12   2    -1.37500     0.79386    -2.24537
    13   2     5.50000     0.00000    -0.00000
    14   1    -2.75000     4.76314    -0.00000
    15   2    -5.50000     0.00000    -0.00000
    16   2    -2.75000    -4.76314    -0.00000
    17   2     2.75000    -4.76314    -0.00000
    18   2     2.75000    -1.58771     4.49073
    19   2     0.00000     3.17543     4.49073
    20   2    -2.75000    -1.58771     4.49073
    21   2     0.00000    -3.17543    -4.49073
    22   2     2.75000     1.58771    -4.49073
    23   2    -2.75000     1.58771    -4.49073
    24   2     4.12500     2.38157    -0.00000
    25   2     4.12500     0.79386    -2.24537
    26   2     0.00000     4.76314    -0.00000
    27   2     1.37500     3.96928     2.24537
    28   2     2.75000     3.17543    -2.24537
    29   2    -4.12500     2.38157    -0.00000
    30   2    -1.37500     3.96928     2.24537
    31   2    -2.75000     3.17543    -2.24537
    32   2    -4.12500    -2.38157    -0.00000
    33   1    -4.12500    -0.79386     2.24537
    34   2    -4.12500     0.79386    -2.24537
    35   2     0.00000    -4.76314    -0.00000
    36   2    -2.75000    -3.17543     2.24537
    37   2    -1.37500    -3.96928    -2.24537
    38   2     4.12500    -2.38157    -0.00000
    39   2     2.75000    -3.17543     2.24537
    40   2     1.37500    -3.96928    -2.24537
    41   1     1.37500     0.79386     4.49073
    42   2     0.00000    -1.58771     4.49073
    43   2    -1.37500     0.79386     4.49073
    44   2     1.37500    -0.79386    -4.49073
    45   2    -1.37500    -0.79386    -4.49073
    46   3     0.00000     1.58771    -4.49073
    47   3     2.75000     1.58771     2.24537
    48   2     0.00000     3.17543    -2.24537
    49   2    -2.75000     1.58771     2.24537
    50   2    -2.75000    -1.58771    -2.24537
    51   2     0.00000    -3.17543     2.24537
    52   2     2.75000    -1.58771    -2.24537
    53   2     8.25000     0.00000    -0.00000
    54   2     4.12500     7.14471    -0.00000
    55   2    -4.12500     7.14471    -0.00000
    56   2    -8.25000     0.00000    -0.00000
    57   2    -4.12500    -7.14471    -0.00000
    58   2     4.12500    -7.14471    -0.00000
    59   2     4.12500    -2.38157     6.73610
    60   3     0.00000     4.76314     6.73610
    61   3     0.00000    -4.76314    -6.73610
    62   2     4.12500     2.38157    -6.73610
    63   2    -4.12500     2.38157    -6.73610
    64   2     6.87500     2.38157    -0.00000
    65   2     6.87500    -0.79386     2.24537
    66   2     6.87500     0.79386    -2.24537
    67   2     2.75000     6.35085     2.24537
    68   2    -5.50000     4.76314    -0.00000
    69   2    -2.75000     6.35085     2.24537
    70   1    -4.12500     5.55700    -2.24537
    71   2    -6.87500    -2.38157    -0.00000
    72   2    -6.87500    -0.79386     2.24537
    73   2    -6.87500     0.79386    -2.24537
    74   2    -1.37500    -7.14471    -0.00000
    75   2    -4.12500    -5.55700     2.24537
    76   3    -2.75000    -6.35085    -2.24537
    77   1     5.50000    -4.76314    -0.00000
    78   2     4.12500    -5.55700     2.24537
    79   2     2.75000    -6.35085    -2.24537
    80   2     2.75000     0.00000     6.73610
    81   2     1.37500    -2.38157     6.73610
    82   2    -1.37500     2.38157     6.73610
    83   2     1.37500    -2.38157    -6.73610
    84   2    -1.37500    -2.38157    -6.73610
    85   2     1.37500     2.38157    -6.73610
    86   2     5.50000     4.76314    -0.00000
    87   2     5.50000    -1.58771     4.49073
    88   2     5.50000     1.58771    -4.49073
    89   2    -1.37500     7.14471    -0.00000
    90   2     1.37500     5.55700     4.49073
    91   2     4.12500     3.96928    -4.49073
    92   2    -6.87500     2.38157    -0.00000
    93   2    -1.37500     5.55700     4.49073
    94   2    -4.12500     3.96928    -4.49073
    95   2    -5.50000    -4.76314    -0.00000
    96   2    -5.50000    -1.58771     4.49073
    97   2    -5.50000     1.58771    -4.49073
    98   2     1.37500    -7.14471    -0.00000
    99   2    -4.12500    -3.96928     4.49073
   100   2    -1.37500    -5.55700    -4.49073
   101   2     6.87500    -2.38157    -0.00000
   102   2     4.12500    -3.96928     4.49073
   103   2     1.37500    -5.55700    -4.49073
   104   2     1.37500     2.38157     6.73610
   105   2    -1.37500    -2.38157     6.73610
   106   2    -2.75000     0.00000     6.73610
   107   2     2.75000     0.00000    -6.73610
   108   2    -1.37500     2.38157    -6.73610
   109   2     5.50000     3.17543    -2.24537
   110   2     0.00000     6.35085     2.24537
   111   2    -5.50000     3.17543    -2.24537
   112   2     0.00000    -6.35085    -2.24537
   113   2     5.50000    -3.17543     2.24537
   114   2     0.00000     0.00000     6.73610
   115   2     0.00000     0.00000    -6.73610
   116   2     5.50000     1.58771     2.24537
   117   2     1.37500     5.55700    -2.24537
   118   2    -4.12500     3.96928     2.24537
   119   2    -5.50000    -1.58771    -2.24537
   120   2    -1.37500    -5.55700     2.24537
   121   2     4.12500    -3.96928    -2.24537
   122   2     1.37500     3.96928    -4.49073
   123   2    -2.75000     3.17543     4.49073
   124   2    -4.12500    -0.79386    -4.49073
   125   2    -1.37500    -3.96928     4.49073
   126   2     2.75000    -3.17543    -4.49073
   127   2     4.12500     3.96928     2.24537
   128   2    -5.50000     1.58771     2.24537
   129   2    -4.12500    -3.96928    -2.24537
   130   2     1.37500    -5.55700     2.24537
   131   1     5.50000    -1.58771    -2.24537
   132   3    -1.37500     3.96928    -4.49073
   133   2    -4.12500     0.79386     4.49073
   134   3    -2.75000    -3.17543    -4.49073
   135   2     4.12500    -0.79386    -4.49073
   136   2    11.00000     0.00000    -0.00000
   137   2     5.50000     9.52628    -0.00000
   138   2    -5.50000     9.52628    -0.00000
   139   2   -11.00000     0.00000    -0.00000
   140   3    -5.50000    -9.52628    -0.00000
   141   2     5.50000    -9.52628    -0.00000
   142   2     5.50000    -3.17543     8.98146
   143   2     0.00000     6.35085     8.98146
   144   1    -5.50000    -3.17543     8.98146
   145   2     0.00000    -6.35085    -8.98146
   146   2     5.50000     3.17543    -8.98146
   147   2     9.62500     2.38157    -0.00000
   148   2     9.62500    -0.79386     2.24537
   149   2     9.62500     0.79386    -2.24537
   150   2     2.75000     9.52628    -0.00000
   151   1     4.12500     8.73242     2.24537
   152   3     5.50000     7.93857    -2.24537
   153   2    -6.87500     7.14471    -0.00000
   154   2    -4.12500     8.73242     2.24537
   155   2    -5.50000     7.93857    -2.24537
   156   2    -9.62500    -2.38157    -0.00000
   157   2    -9.62500    -0.79386     2.24537
   158   2    -9.62500     0.79386    -2.24537
   159   2    -2.75000    -9.52628    -0.00000
   160   2    -5.50000    -7.93857     2.24537
   161   2     6.87500    -7.14471    -0.00000
   162   2     5.50000    -7.93857     2.24537
   163   2     4.12500    -0.79386     8.98146
   164   2     2.75000    -3.17543     8.98146
   165   2    -1.37500     3.96928     8.98146
   166   2     1.37500    -3.96928    -8.98146
   167   2     2.75000     3.17543    -8.98146
   168   2     8.25000     4.76314    -0.00000
   169   3     8.25000    -1.58771     4.49073
   170   2     8.25000     1.58771    -4.49073
   171   2     0.00000     9.52628    -0.00000
   172   2     2.75000     7.93857     4.49073
   173   2     5.50000     6.35085    -4.49073
   174   2    -8.25000     4.76314    -0.00000
   175   2    -2.75000     7.93857     4.49073
   176   1    -5.50000     6.35085    -4.49073
   177   2    -8.25000    -4.76314    -0.00000
   178   2    -8.25000    -1.58771     4.49073
   179   2    -8.25000     1.58771    -4.49073
   180   2     0.00000    -9.52628    -0.00000
   181   2    -5.50000    -6.35085     4.49073
   182   2    -2.75000    -7.93857    -4.49073
   183   2     8.25000    -4.76314    -0.00000
   184   2     5.50000    -6.35085     4.49073
   185   2     2.75000    -7.93857    -4.49073
   186   2     2.75000     1.58771     8.98146
   187   2     0.00000    -3.17543     8.98146
   188   2    -2.75000     1.58771     8.98146
   189   2     2.75000    -1.58771    -8.98146
   190   2    -2.75000    -1.58771    -8.98146
   191   2     0.00000     3.17543    -8.98146
   192   2     6.87500    -2.38157     6.73610
   193   2     6.87500     2.38157    -6.73610
   194   2    -2.75000     9.52628    -0.00000
   195   2     1.37500     7.14471     6.73610
   196   2     5.50000     4.76314    -6.73610
   197   2    -9.62500     2.38157    -0.00000
   198   2    -1.37500     7.14471     6.73610
   199   1    -5.50000     4.76314    -6.73610
   200   3    -6.87500    -7.14471    -0.00000
   201   2    -6.87500    -2.38157     6.73610
   202   2    -6.87500     2.38157    -6.73610
   203   2    -5.50000    -4.76314     6.73610
   204   2    -1.37500    -7.14471    -6.73610
   205   2     9.62500    -2.38157    -0.00000
   206   2     5.50000    -4.76314     6.73610
   207   2     1.37500    -7.14471    -6.73610
   208   2     1.37500     3.96928     8.98146
   209   2    -2.75000    -3.17543     8.98146
   210   3    -4.12500    -0.79386     8.98146
   211   2     4.12500     0.79386    -8.98146
   212   2    -4.12500     0.79386    -8.98146
   213   2    -2.75000     3.17543    -8.98146
   214   2     8.25000     3.17543    -2.24537
   215   3     1.37500     8.73242     2.24537
   216   2    -6.87500     5.55700    -2.24537
   217   2    -8.25000    -3.17543     2.24537
   218   2    -1.37500    -8.73242    -2.24537
   219   2     6.87500    -5.55700     2.24537
   220   2     1.37500    -0.79386     8.98146
   221   2     0.00000    -1.58771    -8.98146
   222   2     6.87500     3.96928    -4.49073
   223   2     0.00000     7.93857     4.49073
   224   2    -6.87500     3.96928    -4.49073
   225   2    -6.87500    -3.96928     4.49073
   226   2     0.00000    -7.93857    -4.49073
   227   2     6.87500    -3.96928     4.49073
   228   2    -1.37500    -0.79386     8.98146
   229   2    -1.37500     0.79386    -8.98146
   230   2     2.75000     7.93857    -2.24537
   231   2    -5.50000     6.35085     2.24537
   232   2    -8.25000    -1.58771    -2.24537
   233   2    -2.75000    -7.93857     2.24537
   234   2     5.50000    -6.35085    -2.24537
   235   2     6.87500     0.79386     4.49073
   236   2     2.75000     6.35085    -4.49073
   237   2    -4.12500     5.55700     4.49073
   238   2    -6.87500    -0.79386    -4.49073
   239   2    -2.75000    -6.35085     4.49073
   240   2     4.12500    -5.55700    -4.49073
   241   2     5.50000     0.00000     6.73610
   242   2     2.75000     4.76314    -6.73610
   243   2    -2.75000     4.76314     6.73610
   244   2    -5.50000     0.00000    -6.73610
   245   2    -2.75000    -4.76314     6.73610
   246   2     2.75000    -4.76314    -6.73610
   247   2     6.87500     5.55700    -2.24537
   248   2    -1.37500     8.73242     2.24537
   249   2    -8.25000     3.17543    -2.24537
   250   2     1.37500    -8.73242    -2.24537
   251   2     8.25000    -3.17543     2.24537
   252   2     0.00000     1.58771     8.98146
   253   2     1.37500     0.79386    -8.98146
   254   2     6.87500     3.96928     2.24537
   255   2     0.00000     7.93857    -2.24537
   256   2    -6.87500     3.96928     2.24537
   257   2    -6.87500    -3.96928    -2.24537
   258   2     0.00000    -7.93857     2.24537
   259   2     6.87500    -3.96928    -2.24537
   260   3     5.50000     3.17543     4.49073
   261   2     0.00000     6.35085    -4.49073
   262   2    -5.50000     3.17543     4.49073
   263   2    -5.50000    -3.17543    -4.49073
   264   2     0.00000    -6.35085     4.49073
   265   2     5.50000    -3.17543    -4.49073
   266   2     4.12500     2.38157     6.73610
   267   2     0.00000     4.76314    -6.73610
   268   2    -4.12500    -2.38157    -6.73610
   269   3     4.12500    -2.38157    -6.73610
   270   2     5.50000     6.35085     2.24537
   271   2    -2.75000     7.93857    -2.24537
   272   2    -8.25000     1.58771     2.24537
   273   2    -5.50000    -6.35085    -2.24537
   274   2     2.75000    -7.93857     2.24537
   275   1     8.25000    -1.58771    -2.24537
   276   2     4.12500     5.55700     4.49073
   277   2    -2.75000     6.35085    -4.49073
   278   2    -6.87500     0.79386     4.49073
   279   2    -4.12500    -5.55700    -4.49073
   280   2     2.75000    -6.35085     4.49073
   281   2     6.87500    -0.79386    -4.49073
   282   2     2.75000     4.76314     6.73610
   283   2    -5.50000     0.00000     6.73610
   284   2    -2.75000    -4.76314    -6.73610
   285   1     2.75000    -4.76314     6.73610
   286   2     5.50000     0.00000    -6.73610
   287   2    13.75000     0.00000    -0.00000
   288   2     6.87500    11.90785    -0.00000
   289   2    -6.87500    11.90785    -0.00000
   290   2   -13.75000     0.00000    -0.00000
   291   2    -6.87500   -11.90785    -0.00000
   292   2     6.87500   -11.90785    -0.00000
   293   2     6.87500    -3.96928    11.22683
   294   3     0.00000     7.93857    11.22683
   295   2    -6.87500    -3.96928    11.22683
   296   2     0.00000    -7.93857   -11.22683
   297   2    -6.87500     3.96928   -11.22683
   298   2    12.37500     2.38157    -0.00000
   299   2    12.37500    -0.79386     2.24537
   300   3    12.37500     0.79386    -2.24537
   301   1     4.12500    11.90785    -0.00000
   302   2     5.50000    11.11399     2.24537
   303   2     6.87500    10.32014    -2.24537
   304   2    -8.25000     9.52628    -0.00000
   305   2    -5.50000    11.11399     2.24537
   306   2    -6.87500    10.32014    -2.24537
   307   2   -12.37500     0.79386    -2.24537
   308   2    -4.12500   -11.90785    -0.00000
   309   2    -6.87500   -10.32014     2.24537
   310   2    -5.50000   -11.11399    -2.24537
   311   1     8.25000    -9.52628    -0.00000
   312   2     6.87500   -10.32014     2.24537
   313   2     5.50000   -11.11399    -2.24537
   314   2     5.50000    -1.58771    11.22683
   315   2     4.12500    -3.96928    11.22683
   316   2    -1.37500     5.55700    11.22683
   317   2     1.37500    -5.55700   -11.22683
   318   1    -1.37500    -5.55700   -11.22683
   319   2     4.12500     3.96928   -11.22683
   320   1    11.00000     4.76314    -0.00000
   321   2    11.00000    -1.58771     4.49073
   322   2    11.00000     1.58771    -4.49073
   323   2     1.37500    11.90785    -0.00000
   324   1     4.12500    10.32014     4.49073
   325   2     6.87500     8.73242    -4.49073
   326   2    -9.62500     7.14471    -0.00000
   327   2    -4.12500    10.32014     4.49073
   328   3    -6.87500     8.73242    -4.49073
   329   2   -11.00000    -1.58771     4.49073
   330   2   -11.00000     1.58771    -4.49073
   331   2    -1.37500   -11.90785    -0.00000
   332   3    -6.87500    -8.73242     4.49073
   333   2    -4.12500   -10.32014    -4.49073
   334   2     6.87500    -8.73242     4.49073
   335   3     4.12500   -10.32014    -4.49073
   336   2     4.12500     0.79386    11.22683
   337   2     1.37500    -3.96928    11.22683
   338   2    -2.75000     3.17543    11.22683
   339   2     2.75000    -3.17543   -11.22683
   340   3    -2.75000    -3.17543   -11.22683
   341   2     1.37500     3.96928   -11.22683
   342   2     9.62500     7.14471    -0.00000
   343   3     9.62500    -2.38157     6.73610
   344   2     9.62500     2.38157    -6.73610
   345   2    -1.37500    11.90785    -0.00000
   346   2     2.75000     9.52628     6.73610
   347   2     6.87500     7.14471    -6.73610
   348   2   -11.00000     4.76314    -0.00000
   349   2    -2.75000     9.52628     6.73610
   350   3    -6.87500     7.14471    -6.73610
   351   2    -9.62500    -7.14471    -0.00000
   352   2    -9.62500    -2.38157     6.73610
   353   3    -9.62500     2.38157    -6.73610
   354   2     1.37500   -11.90785    -0.00000
   355   2    -6.87500    -7.14471     6.73610
   356   2    -2.75000    -9.52628    -6.73610
   357   2    11.00000    -4.76314    -0.00000
   358   2     6.87500    -7.14471     6.73610
   359   2     2.75000    -9.52628    -6.73610
   360   2     2.75000     3.17543    11.22683
   361   2    -1.37500    -3.96928    11.22683
   362   1    -4.12500     0.79386    11.22683
   363   2    -4.12500    -0.79386   -11.22683
   364   2    -1.37500     3.96928   -11.22683
   365   2     8.25000     9.52628    -0.00000
   366   2     8.25000    -3.17543     8.98146
   367   2     8.25000     3.17543    -8.98146
   368   2    -4.12500    11.90785    -0.00000
   369   2     1.37500     8.73242     8.98146
   370   2     6.87500     5.55700    -8.98146
   371   2   -12.37500     2.38157    -0.00000
   372   2    -1.37500     8.73242     8.98146
   373   2    -6.87500     5.55700    -8.98146
   374   2    -8.25000    -9.52628    -0.00000
   375   2    -8.25000     3.17543    -8.98146
   376   2     4.12500   -11.90785    -0.00000
   377   2    -6.87500    -5.55700     8.98146
   378   2    -1.37500    -8.73242    -8.98146
   379   2    12.37500    -2.38157    -0.00000
   380   2     6.87500    -5.55700     8.98146
   381   2     1.37500    -8.73242    -8.98146
   382   2     1.37500     5.55700    11.22683
   383   2    -4.12500    -3.96928    11.22683
   384   2    -5.50000    -1.58771    11.22683
   385   2     5.50000     1.58771   -11.22683
   386   3    -5.50000     1.58771   -11.22683
   387   2    -4.12500     3.96928   -11.22683
   388   2    11.00000     3.17543    -2.24537
   389   2     2.75000    11.11399     2.24537
   390   2    -8.25000     7.93857    -2.24537
   391   2   -11.00000    -3.17543     2.24537
   392   2    -2.75000   -11.11399    -2.24537
   393   2     8.25000    -7.93857     2.24537
   394   2     0.00000    -3.17543   -11.22683
   395   2     9.62500     3.96928    -4.49073
   396   2     1.37500    10.32014     4.49073
   397   2    -8.25000     6.35085    -4.49073
   398   2    -9.62500    -3.96928     4.49073
   399   3    -1.37500   -10.32014    -4.49073
   400   2     8.25000    -6.35085     4.49073
   401   2     0.00000    -1.58771    11.22683
   402   3    -1.37500    -0.79386   -11.22683
   403   2     8.25000     4.76314    -6.73610
   404   2     0.00000     9.52628     6.73610
   405   2    -8.25000     4.76314    -6.73610
   406   2    -8.25000    -4.76314     6.73610
   407   2     0.00000    -9.52628    -6.73610
   408   2     8.25000    -4.76314     6.73610
   409   2    -2.75000    -1.58771    11.22683
   410   2    -2.75000     1.58771   -11.22683
   411   2    11.00000     1.58771     2.24537
   412   2     4.12500    10.32014    -2.24537
   413   2    -6.87500     8.73242     2.24537
   414   2   -11.00000    -1.58771    -2.24537
   415   2    -4.12500   -10.32014     2.24537
   416   2     6.87500    -8.73242    -2.24537
   417   2     9.62500     0.79386     4.49073
   418   2     4.12500     8.73242    -4.49073
   419   2    -5.50000     7.93857     4.49073
   420   2    -9.62500    -0.79386    -4.49073
   421   2    -4.12500    -8.73242     4.49073
   422   2     5.50000    -7.93857    -4.49073
   423   2     8.25000     0.00000     6.73610
   424   2     4.12500     7.14471    -6.73610
   425   2    -4.12500     7.14471     6.73610
   426   3    -8.25000     0.00000    -6.73610
   427   2    -4.12500    -7.14471     6.73610
   428   2     4.12500    -7.14471    -6.73610
   429   2     6.87500    -0.79386     8.98146
   430   2     4.12500     5.55700    -8.98146
   431   2    -2.75000     6.35085     8.98146
   432   2    -6.87500     0.79386    -8.98146
   433   2    -4.12500    -5.55700     8.98146
   434   2     2.75000    -6.35085    -8.98146
   435   2     9.62500     5.55700    -2.24537
   436   2     0.00000    11.11399     2.24537
   437   3    -9.62500     5.55700    -2.24537
   438   2    -9.62500    -5.55700     2.24537
   439   2     0.00000   -11.11399    -2.24537
   440   2     9.62500    -5.55700     2.24537
   441   2     1.37500     0.79386    11.22683
   442   2     1.37500    -0.79386   -11.22683
   443   2     8.25000     6.35085    -4.49073
   444   2    -1.37500    10.32014     4.49073
   445   2    -9.62500     3.96928    -4.49073
   446   2    -8.25000    -6.35085     4.49073
   447   2     1.37500   -10.32014    -4.49073
   448   2     9.62500    -3.96928     4.49073
   449   2    -1.37500     0.79386    11.22683
   450   1     0.00000     1.58771   -11.22683
   451   2     9.62500     3.96928     2.24537
   452   2     1.37500    10.32014    -2.24537
   453   2    -8.25000     6.35085     2.24537
   454   2    -9.62500    -3.96928    -2.24537
   455   2    -1.37500   -10.32014     2.24537
   456   2     8.25000    -6.35085    -2.24537
   457   2     8.25000     3.17543     4.49073
   458   3     1.37500     8.73242    -4.49073
   459   2    -6.87500     5.55700     4.49073
   460   1    -8.25000    -3.17543    -4.49073
   461   2    -1.37500    -8.73242     4.49073
   462   2     6.87500    -5.55700    -4.49073
   463   3     6.87500     2.38157     6.73610
   464   2     1.37500     7.14471    -6.73610
   465   2    -5.50000     4.76314     6.73610
   466   2    -1.37500    -7.14471     6.73610
   467   2     5.50000    -4.76314    -6.73610
   468   2     5.50000     1.58771     8.98146
   469   2     1.37500     5.55700    -8.98146
   470   2    -4.12500     3.96928     8.98146
   471   2    -5.50000    -1.58771    -8.98146
   472   3    -1.37500    -5.55700     8.98146
   473   2     4.12500    -3.96928    -8.98146
   474   2     8.25000     7.93857    -2.24537
   475   2    -2.75000    11.11399     2.24537
   476   2    -8.25000    -7.93857     2.24537
   477   2     2.75000   -11.11399    -2.24537
   478   2    11.00000    -3.17543     2.24537
   479   1     0.00000     3.17543    11.22683
   480   2     2.75000     1.58771   -11.22683
   481   2     8.25000     6.35085     2.24537
   482   1    -1.37500    10.32014    -2.24537
   483   2    -9.62500     3.96928     2.24537
   484   2    -8.25000    -6.35085    -2.24537
   485   2     1.37500   -10.32014     2.24537
   486   2     9.62500    -3.96928    -2.24537
   487   2     6.87500     5.55700     4.49073
   488   1    -1.37500     8.73242    -4.49073
   489   2    -8.25000     3.17543     4.49073
   490   2    -6.87500    -5.55700    -4.49073
   491   2     1.37500    -8.73242     4.49073
   492   3     8.25000    -3.17543    -4.49073
   493   2     5.50000     4.76314     6.73610
   494   2    -1.37500     7.14471    -6.73610
   495   2    -6.87500     2.38157     6.73610
   496   2    -5.50000    -4.76314    -6.73610
   497   2     1.37500    -7.14471     6.73610
   498   2     6.87500    -2.38157    -6.73610
   499   2     4.12500     3.96928     8.98146
   500   2    -1.37500     5.55700    -8.98146
   501   2    -5.50000     1.58771     8.98146
   502   3    -4.12500    -3.96928    -8.98146
   503   2     1.37500    -5.55700     8.98146
   504   2     5.50000    -1.58771    -8.98146
   505   2     6.87500     8.73242     2.24537
   506   2    -4.12500    10.32014    -2.24537
   507   2   -11.00000     1.58771     2.24537
   508   2    -6.87500    -8.73242    -2.24537
   509   2     4.12500   -10.32014     2.24537
   510   2    11.00000    -1.58771    -2.24537
   511   2     5.50000     7.93857     4.49073
   512   2    -4.12500     8.73242    -4.49073
   513   2    -9.62500     0.79386     4.49073
   514   1    -5.50000    -7.93857    -4.49073
   515   3     4.12500    -8.73242     4.49073
   516   2     9.62500    -0.79386    -4.49073
   517   2     4.12500     7.14471     6.73610
   518   3    -8.25000     0.00000     6.73610
   519   1    -4.12500    -7.14471    -6.73610
   520   2     4.12500    -7.14471     6.73610
   521   2     8.25000     0.00000    -6.73610
   522   2     2.75000     6.35085     8.98146
   523   2    -4.12500     5.55700    -8.98146
   524   2    -6.87500    -0.79386     8.98146
   525   2    -2.75000    -6.35085    -8.98146
   526   2     4.12500    -5.55700     8.98146
   527   2     6.87500     0.79386    -8.98146
   528   2    16.50000     0.00000    -0.00000
   529   1     8.25000    14.28942    -0.00000
   530   2    -8.25000    14.28942    -0.00000
   531   2   -16.50000     0.00000    -0.00000
   532   2     8.25000   -14.28942    -0.00000
   533   2     8.25000    -4.76314    13.47219
   534   2     0.00000     9.52628    13.47219
   535   2    -8.25000    -4.76314    13.47219
   536   2     0.00000    -9.52628   -13.47219
   537   2     8.25000     4.76314   -13.47219
   538   2    -8.25000     4.76314   -13.47219
   539   2    15.12500     2.38157    -0.00000
   540   2    15.12500    -0.79386     2.24537
   541   2    15.12500     0.79386    -2.24537
   542   2     5.50000    14.28942    -0.00000
   543   2     6.87500    13.49556     2.24537
   544   2     8.25000    12.70171    -2.24537
   545   2    -9.62500    11.90785    -0.00000
   546   2    -6.87500    13.49556     2.24537
   547   2    -8.25000    12.70171    -2.24537
   548   3   -15.12500    -2.38157    -0.00000
   549   2   -15.12500    -0.79386     2.24537
   550   2   -15.12500     0.79386    -2.24537
   551   2    -5.50000   -14.28942    -0.00000
   552   2    -8.25000   -12.70171     2.24537
   553   2     9.62500   -11.90785    -0.00000
   554   2     8.25000   -12.70171     2.24537
   555   2     6.87500   -13.49556    -2.24537
   556   2     6.87500    -2.38157    13.47219
   557   2     5.50000    -4.76314    13.47219
   558   2    -1.37500     7.14471    13.47219
   559   2     1.37500    -7.14471   -13.47219
   560   2    -1.37500    -7.14471   -13.47219
   561   2     5.50000     4.76314   -13.47219
   562   2    13.75000     4.76314    -0.00000
   563   2    13.75000    -1.58771     4.49073
   564   2    13.75000     1.58771    -4.49073
   565   2     2.75000    14.28942    -0.00000
   566   2     5.50000    12.70171     4.49073
   567   2     8.25000    11.11399    -4.49073
   568   2   -11.00000     9.52628    -0.00000
   569   1    -5.50000    12.70171     4.49073
   570   2    -8.25000    11.11399    -4.49073
   571   2   -13.75000    -4.76314    -0.00000
   572   2   -13.75000    -1.58771     4.49073
   573   2   -13.75000     1.58771    -4.49073
   574   2    -2.75000   -14.28942    -0.00000
   575   2    -8.25000   -11.11399     4.49073
   576   1    -5.50000   -12.70171    -4.49073
   577   2    11.00000    -9.52628    -0.00000
   578   2     8.25000   -11.11399     4.49073
   579   2     5.50000   -12.70171    -4.49073
   580   2     5.50000     0.00000    13.47219
   581   2     2.75000    -4.76314    13.47219
   582   2    -2.75000     4.76314    13.47219
   583   2     2.75000    -4.76314   -13.47219
   584   1    -2.75000    -4.76314   -13.47219
   585   2     2.75000     4.76314   -13.47219
   586   2    12.37500     7.14471    -0.00000
   587   2    12.37500    -2.38157     6.73610
   588   2    12.37500     2.38157    -6.73610
   589   2     0.00000    14.28942    -0.00000
   590   2     4.12500    11.90785     6.73610
   591   2     8.25000     9.52628    -6.73610
   592   3   -12.37500     7.14471    -0.00000
   593   2    -4.12500    11.90785     6.73610
   594   2    -8.25000     9.52628    -6.73610
   595   2   -12.37500    -7.14471    -0.00000
   596   2   -12.37500    -2.38157     6.73610
   597   3   -12.37500     2.38157    -6.73610
   598   3     0.00000   -14.28942    -0.00000
   599   2    -8.25000    -9.52628     6.73610
   600   2    -4.12500   -11.90785    -6.73610
   601   2    12.37500    -7.14471    -0.00000
   602   3     8.25000    -9.52628     6.73610
   603   2     4.12500   -11.90785    -6.73610
   604   2     4.12500     2.38157    13.47219
   605   2     0.00000    -4.76314    13.47219
   606   2    -4.12500     2.38157    13.47219
   607   2     4.12500    -2.38157   -13.47219
   608   3    -4.12500    -2.38157   -13.47219
   609   3    11.00000     9.52628    -0.00000
   610   2    11.00000    -3.17543     8.98146
   611   2    11.00000     3.17543    -8.98146
   612   2     2.75000    11.11399     8.98146
   613   2     8.25000     7.93857    -8.98146
   614   2   -13.75000     4.76314    -0.00000
   615   2    -2.75000    11.11399     8.98146
   616   2    -8.25000     7.93857    -8.98146
   617   2   -11.00000    -9.52628    -0.00000
   618   2   -11.00000    -3.17543     8.98146
   619   2   -11.00000     3.17543    -8.98146
   620   2     2.75000   -14.28942    -0.00000
   621   2    -8.25000    -7.93857     8.98146
   622   1    -2.75000   -11.11399    -8.98146
   623   2    13.75000    -4.76314    -0.00000
   624   1     8.25000    -7.93857     8.98146
   625   2     2.75000   -11.11399    -8.98146
   626   1     2.75000     4.76314    13.47219
   627   2    -2.75000    -4.76314    13.47219
   628   2    -5.50000     0.00000    13.47219
   629   1     5.50000     0.00000   -13.47219
   630   2    -5.50000     0.00000   -13.47219
   631   2    -2.75000     4.76314   -13.47219
   632   2     9.62500    11.90785    -0.00000
   633   2     9.62500    -3.96928    11.22683
   634   2     9.62500     3.96928   -11.22683