LAMMPS DATA FOR MEAM SIMULATION

   3398   atoms
      3   atom types

  -33.82   33.82   xlo xhi
  -33.82   33.82   ylo yhi
  -33.82   33.82   zlo zhi

 Atoms

     1   2    -1.37500     2.38157    -0.00000
     2   2    -2.75000     0.00000    -0.00000
     3   2    -1.37500    -2.38157    -0.00000
     4   2     1.37500    -2.38157    -0.00000
     5   2     1.37500    -0.79386     2.24537
     6   3     0.00000     1.58771     2.24537
     7   2    -1.37500     0.79386    -2.24537
     8   2     5.50000     0.00000    -0.00000
     9   2     2.75000     4.76314    -0.00000
    10   2    -5.50000     0.00000    -0.00000
    11   2    -2.75000    -4.76314    -0.00000
    12   2     2.75000    -4.76314    -0.00000
    13   2     2.75000    -1.58771     4.49073
    14   2     0.00000     3.17543     4.49073
    15   2    -2.75000    -1.58771     4.49073
    16   2     0.00000    -3.17543    -4.49073
    17   2     2.75000     1.58771    -4.49073
    18   2     4.12500     2.38157    -0.00000
    19   2     4.12500    -0.79386     2.24537
    20   2     4.12500     0.79386    -2.24537
    21   2     0.00000     4.76314    -0.00000
    22   2     1.37500     3.96928     2.24537
    23   2    -1.37500     3.96928     2.24537
    24   2    -2.75000     3.17543    -2.24537
    25   1    -4.12500    -0.79386     2.24537
    26   2    -2.75000    -3.17543     2.24537
    27   2    -1.37500    -3.96928    -2.24537
    28   2     4.12500    -2.38157    -0.00000
    29   2     2.75000    -3.17543     2.24537
    30   2     1.37500    -3.96928    -2.24537
    31   1     1.37500     0.79386     4.49073
    32   2     0.00000    -1.58771     4.49073
    33   2    -1.37500     0.79386     4.49073
    34   2     1.37500    -0.79386    -4.49073
    35   2    -1.37500    -0.79386    -4.49073
    36   3     2.75000     1.58771     2.24537
    37   2     0.00000     3.17543    -2.24537
    38   2    -2.75000     1.58771     2.24537
    39   2    -2.75000    -1.58771    -2.24537
    40   2     0.00000    -3.17543     2.24537
    41   2     8.25000     0.00000    -0.00000
    42   2     4.12500     7.14471    -0.00000
    43   2    -4.12500     7.14471    -0.00000
    44   2    -4.12500    -7.14471    -0.00000
    45   2     4.12500    -7.14471    -0.00000
    46   2     4.12500    -2.38157     6.73610
    47   3     0.00000     4.76314     6.73610
    48   3     0.00000    -4.76314    -6.73610
    49   2    -4.12500     2.38157    -6.73610
    50   2     6.87500     2.38157    -0.00000
    51   2     6.87500    -0.79386     2.24537
    52   2     6.87500     0.79386    -2.24537
    53   2     1.37500     7.14471    -0.00000
    54   2     2.75000     6.35085     2.24537
    55   2     4.12500     5.55700    -2.24537
    56   2    -5.50000     4.76314    -0.00000
    57   2    -2.75000     6.35085     2.24537
    58   2    -6.87500    -2.38157    -0.00000
    59   2    -6.87500    -0.79386     2.24537
    60   2    -6.87500     0.79386    -2.24537
    61   2    -1.37500    -7.14471    -0.00000
    62   2    -4.12500    -5.55700     2.24537
    63   3    -2.75000    -6.35085    -2.24537
    64   1     5.50000    -4.76314    -0.00000
    65   2     2.75000     0.00000     6.73610
    66   2     1.37500    -2.38157     6.73610
    67   2    -1.37500     2.38157     6.73610
    68   2     1.37500    -2.38157    -6.73610
    69   2     1.37500     2.38157    -6.73610
    70   2     5.50000     4.76314    -0.00000
    71   2     5.50000    -1.58771     4.49073
    72   2     5.50000     1.58771    -4.49073
    73   2    -1.37500     7.14471    -0.00000
    74   2     1.37500     5.55700     4.49073
    75   2     4.12500     3.96928    -4.49073
    76   2    -1.37500     5.55700     4.49073
    77   2    -5.50000    -4.76314    -0.00000
    78   2    -5.50000    -1.58771     4.49073
    79   2    -1.37500    -5.55700    -4.49073
    80   2     6.87500    -2.38157    -0.00000
    81   2     4.12500    -3.96928     4.49073
    82   2     1.37500    -5.55700    -4.49073
    83   2     1.37500     2.38157     6.73610
    84   2    -2.75000     0.00000     6.73610
    85   2     2.75000     0.00000    -6.73610
    86   2    -2.75000     0.00000    -6.73610
    87   2    -1.37500     2.38157    -6.73610
    88   2     5.50000     3.17543    -2.24537
    89   2     0.00000     6.35085     2.24537
    90   2     5.50000    -3.17543     2.24537
    91   2     0.00000     0.00000    -6.73610
    92   2     5.50000     1.58771     2.24537
    93   2     1.37500     5.55700    -2.24537
    94   2    -4.12500     3.96928     2.24537
    95   2    -5.50000    -1.58771    -2.24537
    96   2    -1.37500    -5.55700     2.24537
    97   2     4.12500    -3.96928    -2.24537
    98   2     4.12500     0.79386     4.49073
    99   2     1.37500     3.96928    -4.49073
   100   2    -2.75000     3.17543     4.49073
   101   2    -4.12500    -0.79386    -4.49073
   102   2    -1.37500    -3.96928     4.49073
   103   2     2.75000    -3.17543    -4.49073
   104   2     4.12500     3.96928     2.24537
   105   2    -1.37500     5.55700    -2.24537
   106   2    -4.12500    -3.96928    -2.24537
   107   2     1.37500    -5.55700     2.24537
   108   1     5.50000    -1.58771    -2.24537
   109   3    -1.37500     3.96928    -4.49073
   110   3    -2.75000    -3.17543    -4.49073
   111   2     1.37500    -3.96928     4.49073
   112   2    11.00000     0.00000    -0.00000
   113   2     5.50000     9.52628    -0.00000
   114   2    -5.50000     9.52628    -0.00000
   115   2   -11.00000     0.00000    -0.00000
   116   2     5.50000    -3.17543     8.98146
   117   1    -5.50000    -3.17543     8.98146
   118   2     0.00000    -6.35085    -8.98146
   119   2     5.50000     3.17543    -8.98146
   120   2    -5.50000     3.17543    -8.98146
   121   2     9.62500     2.38157    -0.00000
   122   2     9.62500    -0.79386     2.24537
   123   2     9.62500     0.79386    -2.24537
   124   1     4.12500     8.73242     2.24537
   125   3     5.50000     7.93857    -2.24537
   126   2    -6.87500     7.14471    -0.00000
   127   2    -4.12500     8.73242     2.24537
   128   2    -5.50000     7.93857    -2.24537
   129   2    -9.62500    -2.38157    -0.00000
   130   2    -9.62500    -0.79386     2.24537
   131   2    -9.62500     0.79386    -2.24537
   132   2    -5.50000    -7.93857     2.24537
   133   2    -4.12500    -8.73242    -2.24537
   134   2     6.87500    -7.14471    -0.00000
   135   2     5.50000    -7.93857     2.24537
   136   1     4.12500    -8.73242    -2.24537
   137   2     4.12500    -0.79386     8.98146
   138   2     2.75000    -3.17543     8.98146
   139   2    -1.37500     3.96928     8.98146
   140   2     1.37500    -3.96928    -8.98146
   141   2    -1.37500    -3.96928    -8.98146
   142   2     2.75000     3.17543    -8.98146
   143   2     8.25000     4.76314    -0.00000
   144   2     8.25000     1.58771    -4.49073
   145   2     0.00000     9.52628    -0.00000
   146   2     2.75000     7.93857     4.49073
   147   2     5.50000     6.35085    -4.49073
   148   2    -8.25000     4.76314    -0.00000
   149   1    -5.50000     6.35085    -4.49073
   150   2    -8.25000    -4.76314    -0.00000
   151   2    -8.25000    -1.58771     4.49073
   152   2    -8.25000     1.58771    -4.49073
   153   2     0.00000    -9.52628    -0.00000
   154   2    -5.50000    -6.35085     4.49073
   155   2    -2.75000    -7.93857    -4.49073
   156   2     8.25000    -4.76314    -0.00000
   157   2     5.50000    -6.35085     4.49073
   158   2     2.75000    -7.93857    -4.49073
   159   2     2.75000     1.58771     8.98146
   160   2     0.00000    -3.17543     8.98146
   161   2     2.75000    -1.58771    -8.98146
   162   2    -2.75000    -1.58771    -8.98146
   163   2     0.00000     3.17543    -8.98146
   164   2     6.87500     7.14471    -0.00000
   165   2     6.87500    -2.38157     6.73610
   166   2     6.87500     2.38157    -6.73610
   167   2    -2.75000     9.52628    -0.00000
   168   2     1.37500     7.14471     6.73610
   169   2     5.50000     4.76314    -6.73610
   170   2    -9.62500     2.38157    -0.00000
   171   2    -1.37500     7.14471     6.73610
   172   1    -5.50000     4.76314    -6.73610
   173   3    -6.87500    -7.14471    -0.00000
   174   2    -6.87500     2.38157    -6.73610
   175   2     2.75000    -9.52628    -0.00000
   176   2    -5.50000    -4.76314     6.73610
   177   2    -1.37500    -7.14471    -6.73610
   178   2     9.62500    -2.38157    -0.00000
   179   2     5.50000    -4.76314     6.73610
   180   2     1.37500     3.96928     8.98146
   181   2    -2.75000    -3.17543     8.98146
   182   2     4.12500     0.79386    -8.98146
   183   2    -4.12500     0.79386    -8.98146
   184   2    -2.75000     3.17543    -8.98146
   185   2     8.25000     3.17543    -2.24537
   186   3     1.37500     8.73242     2.24537
   187   2    -6.87500     5.55700    -2.24537
   188   2    -1.37500    -8.73242    -2.24537
   189   2     6.87500    -5.55700     2.24537
   190   2     1.37500    -0.79386     8.98146
   191   2     0.00000    -1.58771    -8.98146
   192   2     6.87500     3.96928    -4.49073
   193   2    -6.87500     3.96928    -4.49073
   194   2    -6.87500    -3.96928     4.49073
   195   2     0.00000    -7.93857    -4.49073
   196   2     6.87500    -3.96928     4.49073
   197   2    -1.37500    -0.79386     8.98146
   198   2    -1.37500     0.79386    -8.98146
   199   2     8.25000     1.58771     2.24537
   200   2     2.75000     7.93857    -2.24537
   201   2    -5.50000     6.35085     2.24537
   202   2    -2.75000    -7.93857     2.24537
   203   2     5.50000    -6.35085    -2.24537
   204   2     6.87500     0.79386     4.49073
   205   2     2.75000     6.35085    -4.49073
   206   2    -6.87500    -0.79386    -4.49073
   207   2    -2.75000    -6.35085     4.49073
   208   2     4.12500    -5.55700    -4.49073
   209   2     5.50000     0.00000     6.73610
   210   2     2.75000     4.76314    -6.73610
   211   2    -2.75000     4.76314     6.73610
   212   2    -5.50000     0.00000    -6.73610
   213   2    -2.75000    -4.76314     6.73610
   214   2     2.75000    -4.76314    -6.73610
   215   2     6.87500     5.55700    -2.24537
   216   2    -1.37500     8.73242     2.24537
   217   2    -8.25000     3.17543    -2.24537
   218   2     1.37500    -8.73242    -2.24537
   219   2     8.25000    -3.17543     2.24537
   220   2     0.00000     1.58771     8.98146
   221   2     1.37500     0.79386    -8.98146
   222   2     6.87500     3.96928     2.24537
   223   2     0.00000     7.93857    -2.24537
   224   2    -6.87500    -3.96928    -2.24537
   225   2     0.00000    -7.93857     2.24537
   226   2     6.87500    -3.96928    -2.24537
   227   3     5.50000     3.17543     4.49073
   228   2     0.00000     6.35085    -4.49073
   229   2    -5.50000     3.17543     4.49073
   230   2    -5.50000    -3.17543    -4.49073
   231   2     0.00000    -6.35085     4.49073
   232   2     5.50000    -3.17543    -4.49073
   233   2     4.12500     2.38157     6.73610
   234   2    -4.12500     2.38157     6.73610
   235   2    -4.12500    -2.38157    -6.73610
   236   2     0.00000    -4.76314     6.73610
   237   3     4.12500    -2.38157    -6.73610
   238   2    -2.75000     7.93857    -2.24537
   239   2    -8.25000     1.58771     2.24537
   240   2     2.75000    -7.93857     2.24537
   241   1     8.25000    -1.58771    -2.24537
   242   2     4.12500     5.55700     4.49073
   243   2    -2.75000     6.35085    -4.49073
   244   2    -6.87500     0.79386     4.49073
   245   2    -4.12500    -5.55700    -4.49073
   246   2     2.75000    -6.35085     4.49073
   247   2     6.87500    -0.79386    -4.49073
   248   2     2.75000     4.76314     6.73610
   249   2    -2.75000     4.76314    -6.73610
   250   2    -5.50000     0.00000     6.73610
   251   2    -2.75000    -4.76314    -6.73610
   252   1     2.75000    -4.76314     6.73610
   253   2     5.50000     0.00000    -6.73610
   254   2    13.75000     0.00000    -0.00000
   255   2     6.87500    11.90785    -0.00000
   256   2    -6.87500    11.90785    -0.00000
   257   2   -13.75000     0.00000    -0.00000
   258   2    -6.87500   -11.90785    -0.00000
   259   2     6.87500   -11.90785    -0.00000
   260   2     6.87500    -3.96928    11.22683
   261   3     0.00000     7.93857    11.22683
   262   2    -6.87500    -3.96928    11.22683
   263   2     0.00000    -7.93857   -11.22683
   264   3     6.87500     3.96928   -11.22683
   265   2    -6.87500     3.96928   -11.22683
   266   2    12.37500     2.38157    -0.00000
   267   2    12.37500    -0.79386     2.24537
   268   3    12.37500     0.79386    -2.24537
   269   2     5.50000    11.11399     2.24537
   270   2     6.87500    10.32014    -2.24537
   271   2    -5.50000    11.11399     2.24537
   272   2    -6.87500    10.32014    -2.24537
   273   2   -12.37500    -2.38157    -0.00000
   274   2   -12.37500    -0.79386     2.24537
   275   2   -12.37500     0.79386    -2.24537
   276   2    -4.12500   -11.90785    -0.00000
   277   2    -6.87500   -10.32014     2.24537
   278   2    -5.50000   -11.11399    -2.24537
   279   1     8.25000    -9.52628    -0.00000
   280   2     6.87500   -10.32014     2.24537
   281   2     5.50000    -1.58771    11.22683
   282   2     4.12500    -3.96928    11.22683
   283   2    -1.37500     5.55700    11.22683
   284   2     1.37500    -5.55700   -11.22683
   285   1    -1.37500    -5.55700   -11.22683
   286   2     4.12500     3.96928   -11.22683
   287   2    11.00000    -1.58771     4.49073
   288   2    11.00000     1.58771    -4.49073
   289   2     1.37500    11.90785    -0.00000
   290   1     4.12500    10.32014     4.49073
   291   2     6.87500     8.73242    -4.49073
   292   2    -9.62500     7.14471    -0.00000
   293   2    -4.12500    10.32014     4.49073
   294   2   -11.00000    -4.76314    -0.00000
   295   2   -11.00000    -1.58771     4.49073
   296   2   -11.00000     1.58771    -4.49073
   297   2    -1.37500   -11.90785    -0.00000
   298   3    -6.87500    -8.73242     4.49073
   299   2    -4.12500   -10.32014    -4.49073
   300   2     9.62500    -7.14471    -0.00000
   301   2     6.87500    -8.73242     4.49073
   302   3     4.12500   -10.32014    -4.49073
   303   2     4.12500     0.79386    11.22683
   304   2     1.37500    -3.96928    11.22683
   305   2    -2.75000     3.17543    11.22683
   306   2     2.75000    -3.17543   -11.22683
   307   3    -2.75000    -3.17543   -11.22683
   308   2     1.37500     3.96928   -11.22683
   309   2     9.62500     7.14471    -0.00000
   310   3     9.62500    -2.38157     6.73610
   311   2    -1.37500    11.90785    -0.00000
   312   2     2.75000     9.52628     6.73610
   313   2     6.87500     7.14471    -6.73610
   314   2   -11.00000     4.76314    -0.00000
   315   2    -2.75000     9.52628     6.73610
   316   3    -6.87500     7.14471    -6.73610
   317   2    -9.62500    -7.14471    -0.00000
   318   2    -9.62500    -2.38157     6.73610
   319   3    -9.62500     2.38157    -6.73610
   320   2     1.37500   -11.90785    -0.00000
   321   2    -6.87500    -7.14471     6.73610
   322   2    -2.75000    -9.52628    -6.73610
   323   2    11.00000    -4.76314    -0.00000
   324   2     6.87500    -7.14471     6.73610
   325   2     2.75000    -9.52628    -6.73610
   326   2     2.75000     3.17543    11.22683
   327   2    -1.37500    -3.96928    11.22683
   328   1    -4.12500     0.79386    11.22683
   329   2     4.12500    -0.79386   -11.22683
   330   2    -4.12500    -0.79386   -11.22683
   331   2     8.25000     9.52628    -0.00000
   332   2     8.25000    -3.17543     8.98146
   333   2     8.25000     3.17543    -8.98146
   334   2    -4.12500    11.90785    -0.00000
   335   2     1.37500     8.73242     8.98146
   336   2     6.87500     5.55700    -8.98146
   337   2   -12.37500     2.38157    -0.00000
   338   2    -1.37500     8.73242     8.98146
   339   2    -6.87500     5.55700    -8.98146
   340   2    -8.25000    -9.52628    -0.00000
   341   2    -8.25000    -3.17543     8.98146
   342   2    -8.25000     3.17543    -8.98146
   343   2     4.12500   -11.90785    -0.00000
   344   2    -6.87500    -5.55700     8.98146
   345   2    -1.37500    -8.73242    -8.98146
   346   2     6.87500    -5.55700     8.98146
   347   2     1.37500    -8.73242    -8.98146
   348   2     1.37500     5.55700    11.22683
   349   2    -4.12500    -3.96928    11.22683
   350   2    -5.50000    -1.58771    11.22683
   351   2     5.50000     1.58771   -11.22683
   352   3    -5.50000     1.58771   -11.22683
   353   2    -4.12500     3.96928   -11.22683
   354   2    11.00000     3.17543    -2.24537
   355   2     2.75000    11.11399     2.24537
   356   2    -8.25000     7.93857    -2.24537
   357   2    -2.75000   -11.11399    -2.24537
   358   2     8.25000    -7.93857     2.24537
   359   2     2.75000    -1.58771    11.22683
   360   2     0.00000    -3.17543   -11.22683
   361   2     9.62500     3.96928    -4.49073
   362   2     1.37500    10.32014     4.49073
   363   2    -9.62500    -3.96928     4.49073
   364   3    -1.37500   -10.32014    -4.49073
   365   2     8.25000    -6.35085     4.49073
   366   2     0.00000    -1.58771    11.22683
   367   2     8.25000     4.76314    -6.73610
   368   2     0.00000     9.52628     6.73610
   369   2    -8.25000     4.76314    -6.73610
   370   2    -8.25000    -4.76314     6.73610
   371   2     0.00000    -9.52628    -6.73610
   372   2     8.25000    -4.76314     6.73610
   373   2    -2.75000    -1.58771    11.22683
   374   2    -2.75000     1.58771   -11.22683
   375   2    11.00000     1.58771     2.24537
   376   2     4.12500    10.32014    -2.24537
   377   2    -6.87500     8.73242     2.24537
   378   2   -11.00000    -1.58771    -2.24537
   379   2    -4.12500   -10.32014     2.24537
   380   2     6.87500    -8.73242    -2.24537
   381   2     9.62500     0.79386     4.49073
   382   2     4.12500     8.73242    -4.49073
   383   2    -5.50000     7.93857     4.49073
   384   2    -9.62500    -0.79386    -4.49073
   385   2     5.50000    -7.93857    -4.49073
   386   2     8.25000     0.00000     6.73610
   387   2     4.12500     7.14471    -6.73610
   388   2    -4.12500     7.14471     6.73610
   389   3    -8.25000     0.00000    -6.73610
   390   2    -4.12500    -7.14471     6.73610
   391   2     4.12500    -7.14471    -6.73610
   392   2     6.87500    -0.79386     8.98146
   393   2     4.12500     5.55700    -8.98146
   394   2    -2.75000     6.35085     8.98146
   395   2    -6.87500     0.79386    -8.98146
   396   2    -4.12500    -5.55700     8.98146
   397   2     2.75000    -6.35085    -8.98146
   398   2     9.62500     5.55700    -2.24537
   399   2     0.00000    11.11399     2.24537
   400   3    -9.62500     5.55700    -2.24537
   401   2     0.00000   -11.11399    -2.24537
   402   2     9.62500    -5.55700     2.24537
   403   2     1.37500     0.79386    11.22683
   404   2     1.37500    -0.79386   -11.22683
   405   2    -1.37500    10.32014     4.49073
   406   2    -9.62500     3.96928    -4.49073
   407   2    -8.25000    -6.35085     4.49073
   408   2     1.37500   -10.32014    -4.49073
   409   2     9.62500    -3.96928     4.49073
   410   2    -1.37500     0.79386    11.22683
   411   1     0.00000     1.58771   -11.22683
   412   2     9.62500     3.96928     2.24537
   413   2     1.37500    10.32014    -2.24537
   414   2    -8.25000     6.35085     2.24537
   415   2    -9.62500    -3.96928    -2.24537
   416   2    -1.37500   -10.32014     2.24537
   417   2     8.25000    -6.35085    -2.24537
   418   2     8.25000     3.17543     4.49073
   419   3     1.37500     8.73242    -4.49073
   420   2    -6.87500     5.55700     4.49073
   421   1    -8.25000    -3.17543    -4.49073
   422   2    -1.37500    -8.73242     4.49073
   423   2     6.87500    -5.55700    -4.49073
   424   3     6.87500     2.38157     6.73610
   425   2     1.37500     7.14471    -6.73610
   426   2    -6.87500    -2.38157    -6.73610
   427   2    -1.37500    -7.14471     6.73610
   428   2     5.50000    -4.76314    -6.73610
   429   2     5.50000     1.58771     8.98146
   430   2     1.37500     5.55700    -8.98146
   431   2    -4.12500     3.96928     8.98146
   432   2    -5.50000    -1.58771    -8.98146
   433   2     4.12500    -3.96928    -8.98146
   434   2     8.25000     7.93857    -2.24537
   435   2   -11.00000     3.17543    -2.24537
   436   2     2.75000   -11.11399    -2.24537
   437   2    11.00000    -3.17543     2.24537
   438   1     0.00000     3.17543    11.22683
   439   2     2.75000     1.58771   -11.22683
   440   2     8.25000     6.35085     2.24537
   441   1    -1.37500    10.32014    -2.24537
   442   2    -9.62500     3.96928     2.24537
   443   2    -8.25000    -6.35085    -2.24537
   444   2     1.37500   -10.32014     2.24537
   445   2     9.62500    -3.96928    -2.24537
   446   2     6.87500     5.55700     4.49073
   447   1    -1.37500     8.73242    -4.49073
   448   2    -6.87500    -5.55700    -4.49073
   449   2     1.37500    -8.73242     4.49073
   450   3     8.25000    -3.17543    -4.49073
   451   2     5.50000     4.76314     6.73610
   452   2    -6.87500     2.38157     6.73610
   453   2     1.37500    -7.14471     6.73610
   454   2     6.87500    -2.38157    -6.73610
   455   2     4.12500     3.96928     8.98146
   456   2    -1.37500     5.55700    -8.98146
   457   3    -4.12500    -3.96928    -8.98146
   458   2     1.37500    -5.55700     8.98146
   459   2     5.50000    -1.58771    -8.98146
   460   2     6.87500     8.73242     2.24537
   461   2    -4.12500    10.32014    -2.24537
   462   2   -11.00000     1.58771     2.24537
   463   2    -6.87500    -8.73242    -2.24537
   464   2     4.12500   -10.32014     2.24537
   465   2    11.00000    -1.58771    -2.24537
   466   2     5.50000     7.93857     4.49073
   467   2    -9.62500     0.79386     4.49073
   468   1    -5.50000    -7.93857    -4.49073
   469   3     4.12500    -8.73242     4.49073
   470   2     4.12500     7.14471     6.73610
   471   2    -4.12500     7.14471    -6.73610
   472   3    -8.25000     0.00000     6.73610
   473   1    -4.12500    -7.14471    -6.73610
   474   2     4.12500    -7.14471     6.73610
   475   2     8.25000     0.00000    -6.73610
   476   2    -4.12500     5.55700    -8.98146
   477   2    -2.75000    -6.35085    -8.98146
   478   2     4.12500    -5.55700     8.98146
   479   2     6.87500     0.79386    -8.98146
   480   2    16.50000     0.00000    -0.00000
   481   1     8.25000    14.28942    -0.00000
   482   2    -8.25000    14.28942    -0.00000
   483   2   -16.50000     0.00000    -0.00000
   484   2    -8.25000   -14.28942    -0.00000
   485   2     8.25000   -14.28942    -0.00000
   486   2     8.25000    -4.76314    13.47219
   487   2     0.00000     9.52628    13.47219
   488   2    -8.25000    -4.76314    13.47219
   489   2     0.00000    -9.52628   -13.47219
   490   2     8.25000     4.76314   -13.47219
   491   2    -8.25000     4.76314   -13.47219
   492   2    15.12500     2.38157    -0.00000
   493   2    15.12500    -0.79386     2.24537
   494   2     5.50000    14.28942    -0.00000
   495   2     6.87500    13.49556     2.24537
   496   2     8.25000    12.70171    -2.24537
   497   2    -9.62500    11.90785    -0.00000
   498   2    -6.87500    13.49556     2.24537
   499   2    -8.25000    12.70171    -2.24537
   500   3   -15.12500    -2.38157    -0.00000
   501   2   -15.12500    -0.79386     2.24537
   502   2   -15.12500     0.79386    -2.24537
   503   2    -5.50000   -14.28942    -0.00000
   504   2    -8.25000   -12.70171     2.24537
   505   2    -6.87500   -13.49556    -2.24537
   506   2     9.62500   -11.90785    -0.00000
   507   2     8.25000   -12.70171     2.24537
   508   2     6.87500   -13.49556    -2.24537
   509   2     6.87500    -2.38157    13.47219
   510   2     5.50000    -4.76314    13.47219
   511   2    -1.37500     7.14471    13.47219
   512   2     1.37500    -7.14471   -13.47219
   513   2    13.75000     4.76314    -0.00000
   514   2    13.75000    -1.58771     4.49073
   515   2    13.75000     1.58771    -4.49073
   516   2     2.75000    14.28942    -0.00000
   517   2     5.50000    12.70171     4.49073
   518   2     8.25000    11.11399    -4.49073
   519   2   -11.00000     9.52628    -0.00000
   520   1    -5.50000    12.70171     4.49073
   521   2   -13.75000    -4.76314    -0.00000
   522   2   -13.75000     1.58771    -4.49073
   523   2    -2.75000   -14.28942    -0.00000
   524   2    -8.25000   -11.11399     4.49073
   525   2    11.00000    -9.52628    -0.00000
   526   2     8.25000   -11.11399     4.49073
   527   2     5.50000   -12.70171    -4.49073
   528   2     5.50000     0.00000    13.47219
   529   2     2.75000    -4.76314    13.47219
   530   2    -2.75000     4.76314    13.47219
   531   2     2.75000    -4.76314   -13.47219
   532   1    -2.75000    -4.76314   -13.47219
   533   2     2.75000     4.76314   -13.47219
   534   2    12.37500     7.14471    -0.00000
   535   2    12.37500    -2.38157     6.73610
   536   2    12.37500     2.38157    -6.73610
   537   2     0.00000    14.28942    -0.00000
   538   2     4.12500    11.90785     6.73610
   539   2     8.25000     9.52628    -6.73610
   540   3   -12.37500     7.14471    -0.00000
   541   2    -4.12500    11.90785     6.73610
   542   2    -8.25000     9.52628    -6.73610
   543   2   -12.37500    -7.14471    -0.00000
   544   2   -12.37500    -2.38157     6.73610
   545   2    -4.12500   -11.90785    -6.73610
   546   2    12.37500    -7.14471    -0.00000
   547   3     8.25000    -9.52628     6.73610
   548   2     4.12500   -11.90785    -6.73610
   549   2     0.00000    -4.76314    13.47219
   550   2     4.12500    -2.38157   -13.47219
   551   3    -4.12500    -2.38157   -13.47219
   552   2     0.00000     4.76314   -13.47219
   553   2    11.00000    -3.17543     8.98146
   554   2    11.00000     3.17543    -8.98146
   555   2    -2.75000    14.28942    -0.00000
   556   2     2.75000    11.11399     8.98146
   557   2     8.25000     7.93857    -8.98146
   558   2   -13.75000     4.76314    -0.00000
   559   2    -2.75000    11.11399     8.98146
   560   2    -8.25000     7.93857    -8.98146
   561   2   -11.00000    -3.17543     8.98146
   562   2   -11.00000     3.17543    -8.98146
   563   2     2.75000   -14.28942    -0.00000
   564   2    -8.25000    -7.93857     8.98146
   565   1    -2.75000   -11.11399    -8.98146
   566   2    13.75000    -4.76314    -0.00000
   567   1     8.25000    -7.93857     8.98146
   568   1     2.75000     4.76314    13.47219
   569   2    -2.75000    -4.76314    13.47219
   570   2    -5.50000     0.00000    13.47219
   571   1     5.50000     0.00000   -13.47219
   572   2     9.62500    -3.96928    11.22683
   573   2     9.62500     3.96928   -11.22683
   574   2     1.37500    10.32014    11.22683
   575   2     8.25000     6.35085   -11.22683
   576   2    -1.37500    10.32014    11.22683
   577   2    -8.25000     6.35085   -11.22683
   578   1    -9.62500   -11.90785    -0.00000
   579   2    -9.62500    -3.96928    11.22683
   580   2    -9.62500     3.96928   -11.22683
   581   2     5.50000   -14.28942    -0.00000
   582   1    -8.25000    -6.35085    11.22683
   583   2     8.25000    -6.35085    11.22683
   584   3     1.37500   -10.32014   -11.22683
   585   3     1.37500     7.14471    13.47219
   586   2    -5.50000    -4.76314    13.47219
   587   2     6.87500     2.38157   -13.47219
   588   2    -6.87500     2.38157   -13.47219
   589   2    13.75000     3.17543    -2.24537
   590   2     4.12500    13.49556     2.24537
   591   2    -9.62500    10.32014    -2.24537
   592   2   -13.75000    -3.17543     2.24537
   593   2    -4.12500   -13.49556    -2.24537
   594   3     4.12500    -2.38157    13.47219
   595   2     0.00000    -4.76314   -13.47219
   596   2    12.37500     3.96928    -4.49073
   597   1     2.75000    12.70171     4.49073
   598   2    -9.62500     8.73242    -4.49073
   599   2   -12.37500    -3.96928     4.49073
   600   1    -2.75000   -12.70171    -4.49073
   601   2     1.37500    -2.38157    13.47219
   602   2    -1.37500    -2.38157   -13.47219
   603   2    11.00000     4.76314    -6.73610
   604   2     1.37500    11.90785     6.73610
   605   2    -9.62500     7.14471    -6.73610
   606   2    -1.37500   -11.90785    -6.73610
   607   3     9.62500    -7.14471     6.73610
   608   2    -1.37500    -2.38157    13.47219
   609   2     9.62500     5.55700    -8.98146
   610   3     0.00000    11.11399     8.98146
   611   2    -9.62500     5.55700    -8.98146
   612   2    -9.62500    -5.55700     8.98146
   613   2     0.00000   -11.11399    -8.98146
   614   2     9.62500    -5.55700     8.98146
   615   2    -4.12500    -2.38157    13.47219
   616   2    13.75000     1.58771     2.24537
   617   2     5.50000    12.70171    -2.24537
   618   2    -8.25000    11.11399     2.24537
   619   3    -5.50000   -12.70171     2.24537
   620   1    12.37500     0.79386     4.49073
   621   2     5.50000    11.11399    -4.49073
   622   2    -6.87500    10.32014     4.49073
   623   2    -5.50000   -11.11399     4.49073
   624   2     6.87500   -10.32014    -4.49073
   625   2    11.00000     0.00000     6.73610
   626   2     5.50000     9.52628    -6.73610
   627   2    -5.50000     9.52628     6.73610
   628   2   -11.00000     0.00000    -6.73610
   629   2    -5.50000    -9.52628     6.73610
   630   2     5.50000    -9.52628    -6.73610
   631   2     9.62500    -0.79386     8.98146
   632   2     5.50000     7.93857    -8.98146
   633   2    -4.12500     8.73242     8.98146
   634   2    -9.62500     0.79386    -8.98146