LAMMPS DATA FOR MEAM SIMULATION

   3518   atoms
      3   atom types

  -33.82   33.82   xlo xhi
  -33.82   33.82   ylo yhi
  -33.82   33.82   zlo zhi

 Atoms

     1   2     0.00000     0.00000    -0.00000
     2   2     2.75000     0.00000    -0.00000
     3   1     1.37500     2.38157    -0.00000
     4   2    -1.37500     2.38157    -0.00000
     5   2    -2.75000     0.00000    -0.00000
     6   2     1.37500    -2.38157    -0.00000
     7   2     1.37500    -0.79386     2.24537
     8   3     0.00000     1.58771     2.24537
     9   2     0.00000    -1.58771    -2.24537
    10   2     1.37500     0.79386    -2.24537
    11   2    -1.37500     0.79386    -2.24537
    12   2     5.50000     0.00000    -0.00000
    13   2     2.75000     4.76314    -0.00000
    14   2    -2.75000    -4.76314    -0.00000
    15   2     2.75000    -1.58771     4.49073
    16   2     0.00000     3.17543     4.49073
    17   2    -2.75000    -1.58771     4.49073
    18   2     2.75000     1.58771    -4.49073
    19   2    -2.75000     1.58771    -4.49073
    20   2     4.12500     2.38157    -0.00000
    21   2     4.12500    -0.79386     2.24537
    22   2     0.00000     4.76314    -0.00000
    23   2     1.37500     3.96928     2.24537
    24   2     2.75000     3.17543    -2.24537
    25   2    -1.37500     3.96928     2.24537
    26   2    -2.75000     3.17543    -2.24537
    27   2    -4.12500    -2.38157    -0.00000
    28   1    -4.12500    -0.79386     2.24537
    29   2    -4.12500     0.79386    -2.24537
    30   2     0.00000    -4.76314    -0.00000
    31   2    -2.75000    -3.17543     2.24537
    32   2    -1.37500    -3.96928    -2.24537
    33   2     4.12500    -2.38157    -0.00000
    34   2     2.75000    -3.17543     2.24537
    35   2     1.37500    -3.96928    -2.24537
    36   1     1.37500     0.79386     4.49073
    37   2     0.00000    -1.58771     4.49073
    38   2    -1.37500     0.79386     4.49073
    39   2     1.37500    -0.79386    -4.49073
    40   2    -1.37500    -0.79386    -4.49073
    41   3     0.00000     1.58771    -4.49073
    42   3     2.75000     1.58771     2.24537
    43   2     0.00000     3.17543    -2.24537
    44   2    -2.75000     1.58771     2.24537
    45   2     0.00000    -3.17543     2.24537
    46   2     2.75000    -1.58771    -2.24537
    47   2     8.25000     0.00000    -0.00000
    48   2     4.12500     7.14471    -0.00000
    49   2    -4.12500     7.14471    -0.00000
    50   2    -8.25000     0.00000    -0.00000
    51   2     4.12500    -2.38157     6.73610
    52   2    -4.12500    -2.38157     6.73610
    53   2     4.12500     2.38157    -6.73610
    54   2    -4.12500     2.38157    -6.73610
    55   2     6.87500     2.38157    -0.00000
    56   2     6.87500    -0.79386     2.24537
    57   2     6.87500     0.79386    -2.24537
    58   2     1.37500     7.14471    -0.00000
    59   2     2.75000     6.35085     2.24537
    60   2     4.12500     5.55700    -2.24537
    61   2    -5.50000     4.76314    -0.00000
    62   2    -2.75000     6.35085     2.24537
    63   1    -4.12500     5.55700    -2.24537
    64   2    -6.87500    -2.38157    -0.00000
    65   2    -6.87500    -0.79386     2.24537
    66   2    -6.87500     0.79386    -2.24537
    67   2    -1.37500    -7.14471    -0.00000
    68   2    -4.12500    -5.55700     2.24537
    69   3    -2.75000    -6.35085    -2.24537
    70   1     5.50000    -4.76314    -0.00000
    71   2     4.12500    -5.55700     2.24537
    72   2     2.75000    -6.35085    -2.24537
    73   2     2.75000     0.00000     6.73610
    74   2     1.37500    -2.38157     6.73610
    75   2    -1.37500     2.38157     6.73610
    76   2     1.37500    -2.38157    -6.73610
    77   2    -1.37500    -2.38157    -6.73610
    78   2     5.50000     4.76314    -0.00000
    79   2     5.50000    -1.58771     4.49073
    80   2     5.50000     1.58771    -4.49073
    81   2    -1.37500     7.14471    -0.00000
    82   2     1.37500     5.55700     4.49073
    83   2     4.12500     3.96928    -4.49073
    84   2    -6.87500     2.38157    -0.00000
    85   2    -1.37500     5.55700     4.49073
    86   2    -4.12500     3.96928    -4.49073
    87   2    -5.50000    -4.76314    -0.00000
    88   2    -5.50000    -1.58771     4.49073
    89   2    -5.50000     1.58771    -4.49073
    90   2     1.37500    -7.14471    -0.00000
    91   2    -4.12500    -3.96928     4.49073
    92   2    -1.37500    -5.55700    -4.49073
    93   2     6.87500    -2.38157    -0.00000
    94   2     1.37500    -5.55700    -4.49073
    95   2     1.37500     2.38157     6.73610
    96   2    -1.37500    -2.38157     6.73610
    97   2    -2.75000     0.00000     6.73610
    98   2     5.50000     3.17543    -2.24537
    99   2     0.00000     6.35085     2.24537
   100   2    -5.50000    -3.17543     2.24537
   101   2     5.50000    -3.17543     2.24537
   102   2     0.00000     0.00000     6.73610
   103   2     0.00000     0.00000    -6.73610
   104   2    -4.12500     3.96928     2.24537
   105   2    -5.50000    -1.58771    -2.24537
   106   2    -1.37500    -5.55700     2.24537
   107   2     4.12500     0.79386     4.49073
   108   2     1.37500     3.96928    -4.49073
   109   2    -2.75000     3.17543     4.49073
   110   2    -4.12500    -0.79386    -4.49073
   111   2    -1.37500    -3.96928     4.49073
   112   2     2.75000    -3.17543    -4.49073
   113   2     4.12500     3.96928     2.24537
   114   2    -1.37500     5.55700    -2.24537
   115   2    -5.50000     1.58771     2.24537
   116   2    -4.12500    -3.96928    -2.24537
   117   2     1.37500    -5.55700     2.24537
   118   1     5.50000    -1.58771    -2.24537
   119   2     2.75000     3.17543     4.49073
   120   3    -1.37500     3.96928    -4.49073
   121   2    -4.12500     0.79386     4.49073
   122   3    -2.75000    -3.17543    -4.49073
   123   2     1.37500    -3.96928     4.49073
   124   2     4.12500    -0.79386    -4.49073
   125   2    11.00000     0.00000    -0.00000
   126   2     5.50000     9.52628    -0.00000
   127   2    -5.50000     9.52628    -0.00000
   128   3    -5.50000    -9.52628    -0.00000
   129   2     5.50000    -9.52628    -0.00000
   130   2     5.50000    -3.17543     8.98146
   131   2     0.00000     6.35085     8.98146
   132   1    -5.50000    -3.17543     8.98146
   133   2     0.00000    -6.35085    -8.98146
   134   2     5.50000     3.17543    -8.98146
   135   2    -5.50000     3.17543    -8.98146
   136   2     9.62500     2.38157    -0.00000
   137   2     9.62500    -0.79386     2.24537
   138   2     9.62500     0.79386    -2.24537
   139   2     2.75000     9.52628    -0.00000
   140   1     4.12500     8.73242     2.24537
   141   3     5.50000     7.93857    -2.24537
   142   2    -6.87500     7.14471    -0.00000
   143   2    -4.12500     8.73242     2.24537
   144   2    -5.50000     7.93857    -2.24537
   145   2    -9.62500    -2.38157    -0.00000
   146   2    -9.62500     0.79386    -2.24537
   147   2    -2.75000    -9.52628    -0.00000
   148   2    -4.12500    -8.73242    -2.24537
   149   2     6.87500    -7.14471    -0.00000
   150   2     5.50000    -7.93857     2.24537
   151   1     4.12500    -8.73242    -2.24537
   152   2     4.12500    -0.79386     8.98146
   153   2     2.75000    -3.17543     8.98146
   154   2     1.37500    -3.96928    -8.98146
   155   2    -1.37500    -3.96928    -8.98146
   156   2     2.75000     3.17543    -8.98146
   157   2     8.25000     4.76314    -0.00000
   158   3     8.25000    -1.58771     4.49073
   159   2     8.25000     1.58771    -4.49073
   160   2     2.75000     7.93857     4.49073
   161   2     5.50000     6.35085    -4.49073
   162   2    -8.25000     4.76314    -0.00000
   163   2    -2.75000     7.93857     4.49073
   164   1    -5.50000     6.35085    -4.49073
   165   2    -8.25000    -4.76314    -0.00000
   166   2    -8.25000     1.58771    -4.49073
   167   2     0.00000    -9.52628    -0.00000
   168   2    -5.50000    -6.35085     4.49073
   169   2    -2.75000    -7.93857    -4.49073
   170   2     8.25000    -4.76314    -0.00000
   171   2     5.50000    -6.35085     4.49073
   172   2     2.75000    -7.93857    -4.49073
   173   2     2.75000     1.58771     8.98146
   174   2     0.00000    -3.17543     8.98146
   175   2    -2.75000     1.58771     8.98146
   176   2     2.75000    -1.58771    -8.98146
   177   2     0.00000     3.17543    -8.98146
   178   2     6.87500     7.14471    -0.00000
   179   2     6.87500    -2.38157     6.73610
   180   2     6.87500     2.38157    -6.73610
   181   2    -2.75000     9.52628    -0.00000
   182   2     1.37500     7.14471     6.73610
   183   2    -1.37500     7.14471     6.73610
   184   1    -5.50000     4.76314    -6.73610
   185   2    -6.87500     2.38157    -6.73610
   186   2     2.75000    -9.52628    -0.00000
   187   2    -5.50000    -4.76314     6.73610
   188   2    -1.37500    -7.14471    -6.73610
   189   2     5.50000    -4.76314     6.73610
   190   2     1.37500    -7.14471    -6.73610
   191   2     1.37500     3.96928     8.98146
   192   2    -2.75000    -3.17543     8.98146
   193   3    -4.12500    -0.79386     8.98146
   194   2     4.12500     0.79386    -8.98146
   195   2    -4.12500     0.79386    -8.98146
   196   2    -2.75000     3.17543    -8.98146
   197   2     8.25000     3.17543    -2.24537
   198   3     1.37500     8.73242     2.24537
   199   2    -6.87500     5.55700    -2.24537
   200   2    -8.25000    -3.17543     2.24537
   201   2    -1.37500    -8.73242    -2.24537
   202   2     6.87500    -5.55700     2.24537
   203   2     1.37500    -0.79386     8.98146
   204   2     0.00000    -1.58771    -8.98146
   205   2     6.87500     3.96928    -4.49073
   206   2     0.00000     7.93857     4.49073
   207   2    -6.87500     3.96928    -4.49073
   208   2    -6.87500    -3.96928     4.49073
   209   2     0.00000    -7.93857    -4.49073
   210   2     6.87500    -3.96928     4.49073
   211   2    -1.37500    -0.79386     8.98146
   212   2    -1.37500     0.79386    -8.98146
   213   2     8.25000     1.58771     2.24537
   214   2     2.75000     7.93857    -2.24537
   215   2    -5.50000     6.35085     2.24537
   216   2     5.50000    -6.35085    -2.24537
   217   2     6.87500     0.79386     4.49073
   218   2     2.75000     6.35085    -4.49073
   219   2    -4.12500     5.55700     4.49073
   220   2    -6.87500    -0.79386    -4.49073
   221   2    -2.75000    -6.35085     4.49073
   222   2     5.50000     0.00000     6.73610
   223   2     2.75000     4.76314    -6.73610
   224   2    -2.75000     4.76314     6.73610
   225   2    -5.50000     0.00000    -6.73610
   226   2    -2.75000    -4.76314     6.73610
   227   2     2.75000    -4.76314    -6.73610
   228   2     6.87500     5.55700    -2.24537
   229   2    -1.37500     8.73242     2.24537
   230   2    -8.25000     3.17543    -2.24537
   231   2    -6.87500    -5.55700     2.24537
   232   2     1.37500    -8.73242    -2.24537
   233   2     8.25000    -3.17543     2.24537
   234   2     1.37500     0.79386    -8.98146
   235   2     6.87500     3.96928     2.24537
   236   2     0.00000     7.93857    -2.24537
   237   2    -6.87500     3.96928     2.24537
   238   2    -6.87500    -3.96928    -2.24537
   239   2     0.00000    -7.93857     2.24537
   240   2     6.87500    -3.96928    -2.24537
   241   3     5.50000     3.17543     4.49073
   242   2     0.00000     6.35085    -4.49073
   243   2    -5.50000     3.17543     4.49073
   244   2    -5.50000    -3.17543    -4.49073
   245   2     0.00000    -6.35085     4.49073
   246   2     5.50000    -3.17543    -4.49073
   247   2     4.12500     2.38157     6.73610
   248   2     0.00000     4.76314    -6.73610
   249   2    -4.12500     2.38157     6.73610
   250   2    -4.12500    -2.38157    -6.73610
   251   2     0.00000    -4.76314     6.73610
   252   2     5.50000     6.35085     2.24537
   253   2    -2.75000     7.93857    -2.24537
   254   2    -8.25000     1.58771     2.24537
   255   2     2.75000    -7.93857     2.24537
   256   1     8.25000    -1.58771    -2.24537
   257   2     4.12500     5.55700     4.49073
   258   2    -2.75000     6.35085    -4.49073
   259   2    -6.87500     0.79386     4.49073
   260   2    -4.12500    -5.55700    -4.49073
   261   2     2.75000    -6.35085     4.49073
   262   2     6.87500    -0.79386    -4.49073
   263   2     2.75000     4.76314     6.73610
   264   2    -2.75000     4.76314    -6.73610
   265   2    -5.50000     0.00000     6.73610
   266   2    -2.75000    -4.76314    -6.73610
   267   1     2.75000    -4.76314     6.73610
   268   2     5.50000     0.00000    -6.73610
   269   2    13.75000     0.00000    -0.00000
   270   2     6.87500    11.90785    -0.00000
   271   2    -6.87500    11.90785    -0.00000
   272   2   -13.75000     0.00000    -0.00000
   273   2    -6.87500   -11.90785    -0.00000
   274   2     6.87500   -11.90785    -0.00000
   275   2     6.87500    -3.96928    11.22683
   276   3     0.00000     7.93857    11.22683
   277   2    -6.87500    -3.96928    11.22683
   278   2     0.00000    -7.93857   -11.22683
   279   3     6.87500     3.96928   -11.22683
   280   2    -6.87500     3.96928   -11.22683
   281   2    12.37500     2.38157    -0.00000
   282   2    12.37500    -0.79386     2.24537
   283   3    12.37500     0.79386    -2.24537
   284   1     4.12500    11.90785    -0.00000
   285   2     5.50000    11.11399     2.24537
   286   2     6.87500    10.32014    -2.24537
   287   2    -5.50000    11.11399     2.24537
   288   2    -6.87500    10.32014    -2.24537
   289   2   -12.37500    -0.79386     2.24537
   290   2   -12.37500     0.79386    -2.24537
   291   2    -4.12500   -11.90785    -0.00000
   292   2    -6.87500   -10.32014     2.24537
   293   1     8.25000    -9.52628    -0.00000
   294   2     6.87500   -10.32014     2.24537
   295   2     5.50000   -11.11399    -2.24537
   296   2     5.50000    -1.58771    11.22683
   297   2     4.12500    -3.96928    11.22683
   298   2    -1.37500     5.55700    11.22683
   299   2     1.37500    -5.55700   -11.22683
   300   1    -1.37500    -5.55700   -11.22683
   301   2     4.12500     3.96928   -11.22683
   302   1    11.00000     4.76314    -0.00000
   303   2    11.00000    -1.58771     4.49073
   304   2    11.00000     1.58771    -4.49073
   305   2     1.37500    11.90785    -0.00000
   306   1     4.12500    10.32014     4.49073
   307   2     6.87500     8.73242    -4.49073
   308   2    -9.62500     7.14471    -0.00000
   309   2    -4.12500    10.32014     4.49073
   310   3    -6.87500     8.73242    -4.49073
   311   2   -11.00000    -4.76314    -0.00000
   312   2   -11.00000    -1.58771     4.49073
   313   2   -11.00000     1.58771    -4.49073
   314   2    -1.37500   -11.90785    -0.00000
   315   3    -6.87500    -8.73242     4.49073
   316   2    -4.12500   -10.32014    -4.49073
   317   2     9.62500    -7.14471    -0.00000
   318   2     6.87500    -8.73242     4.49073
   319   3     4.12500   -10.32014    -4.49073
   320   2     4.12500     0.79386    11.22683
   321   2     1.37500    -3.96928    11.22683
   322   2    -2.75000     3.17543    11.22683
   323   2     2.75000    -3.17543   -11.22683
   324   3    -2.75000    -3.17543   -11.22683
   325   2     1.37500     3.96928   -11.22683
   326   2     9.62500     7.14471    -0.00000
   327   3     9.62500    -2.38157     6.73610
   328   2    -1.37500    11.90785    -0.00000
   329   2     2.75000     9.52628     6.73610
   330   2     6.87500     7.14471    -6.73610
   331   2   -11.00000     4.76314    -0.00000
   332   2    -2.75000     9.52628     6.73610
   333   3    -6.87500     7.14471    -6.73610
   334   2    -9.62500    -7.14471    -0.00000
   335   2    -9.62500    -2.38157     6.73610
   336   3    -9.62500     2.38157    -6.73610
   337   2     1.37500   -11.90785    -0.00000
   338   2    -6.87500    -7.14471     6.73610
   339   2    -2.75000    -9.52628    -6.73610
   340   2    11.00000    -4.76314    -0.00000
   341   2     6.87500    -7.14471     6.73610
   342   2     2.75000    -9.52628    -6.73610
   343   2     2.75000     3.17543    11.22683
   344   2    -1.37500    -3.96928    11.22683
   345   1    -4.12500     0.79386    11.22683
   346   2     4.12500    -0.79386   -11.22683
   347   2    -4.12500    -0.79386   -11.22683
   348   2    -1.37500     3.96928   -11.22683
   349   2     8.25000     9.52628    -0.00000
   350   2     8.25000    -3.17543     8.98146
   351   2     8.25000     3.17543    -8.98146
   352   2    -4.12500    11.90785    -0.00000
   353   2     1.37500     8.73242     8.98146
   354   2     6.87500     5.55700    -8.98146
   355   2   -12.37500     2.38157    -0.00000
   356   2    -1.37500     8.73242     8.98146
   357   2    -8.25000    -3.17543     8.98146
   358   2    -8.25000     3.17543    -8.98146
   359   2     4.12500   -11.90785    -0.00000
   360   2    -6.87500    -5.55700     8.98146
   361   2     6.87500    -5.55700     8.98146
   362   2     1.37500    -8.73242    -8.98146
   363   2     1.37500     5.55700    11.22683
   364   2    -5.50000    -1.58771    11.22683
   365   2     5.50000     1.58771   -11.22683
   366   3    -5.50000     1.58771   -11.22683
   367   2    -4.12500     3.96928   -11.22683
   368   2     2.75000    11.11399     2.24537
   369   2    -8.25000     7.93857    -2.24537
   370   2   -11.00000    -3.17543     2.24537
   371   2     8.25000    -7.93857     2.24537
   372   2     2.75000    -1.58771    11.22683
   373   2     0.00000    -3.17543   -11.22683
   374   2     9.62500     3.96928    -4.49073
   375   2     1.37500    10.32014     4.49073
   376   2    -8.25000     6.35085    -4.49073
   377   2    -9.62500    -3.96928     4.49073
   378   3    -1.37500   -10.32014    -4.49073
   379   2     8.25000    -6.35085     4.49073
   380   2     0.00000    -1.58771    11.22683
   381   2     8.25000     4.76314    -6.73610
   382   2     0.00000     9.52628     6.73610
   383   2    -8.25000     4.76314    -6.73610
   384   2    -8.25000    -4.76314     6.73610
   385   2     0.00000    -9.52628    -6.73610
   386   2     8.25000    -4.76314     6.73610
   387   2    -2.75000    -1.58771    11.22683
   388   2    -2.75000     1.58771   -11.22683
   389   2    11.00000     1.58771     2.24537
   390   2     4.12500    10.32014    -2.24537
   391   2    -6.87500     8.73242     2.24537
   392   2   -11.00000    -1.58771    -2.24537
   393   2    -4.12500   -10.32014     2.24537
   394   2     6.87500    -8.73242    -2.24537
   395   2     9.62500     0.79386     4.49073
   396   2    -5.50000     7.93857     4.49073
   397   2    -9.62500    -0.79386    -4.49073
   398   2    -4.12500    -8.73242     4.49073
   399   2     5.50000    -7.93857    -4.49073
   400   2     8.25000     0.00000     6.73610
   401   2     4.12500     7.14471    -6.73610
   402   2    -4.12500     7.14471     6.73610
   403   3    -8.25000     0.00000    -6.73610
   404   2    -4.12500    -7.14471     6.73610
   405   2     4.12500    -7.14471    -6.73610
   406   2     6.87500    -0.79386     8.98146
   407   2     4.12500     5.55700    -8.98146
   408   2    -4.12500    -5.55700     8.98146
   409   2     2.75000    -6.35085    -8.98146
   410   2     9.62500     5.55700    -2.24537
   411   2     0.00000    11.11399     2.24537
   412   3    -9.62500     5.55700    -2.24537
   413   2     0.00000   -11.11399    -2.24537
   414   2     9.62500    -5.55700     2.24537
   415   2     1.37500    -0.79386   -11.22683
   416   2     8.25000     6.35085    -4.49073
   417   2    -1.37500    10.32014     4.49073
   418   2    -9.62500     3.96928    -4.49073
   419   2    -8.25000    -6.35085     4.49073
   420   2     9.62500    -3.96928     4.49073
   421   2     1.37500    10.32014    -2.24537
   422   2    -8.25000     6.35085     2.24537
   423   2    -9.62500    -3.96928    -2.24537
   424   2    -1.37500   -10.32014     2.24537
   425   2     8.25000     3.17543     4.49073
   426   3     1.37500     8.73242    -4.49073
   427   2    -6.87500     5.55700     4.49073
   428   1    -8.25000    -3.17543    -4.49073
   429   2    -1.37500    -8.73242     4.49073
   430   2     6.87500    -5.55700    -4.49073
   431   3     6.87500     2.38157     6.73610
   432   2     1.37500     7.14471    -6.73610
   433   2    -5.50000     4.76314     6.73610
   434   2    -6.87500    -2.38157    -6.73610
   435   2     5.50000    -4.76314    -6.73610
   436   2     5.50000     1.58771     8.98146
   437   2     1.37500     5.55700    -8.98146
   438   2    -4.12500     3.96928     8.98146
   439   2    -5.50000    -1.58771    -8.98146
   440   3    -1.37500    -5.55700     8.98146
   441   2     4.12500    -3.96928    -8.98146
   442   2    -8.25000    -7.93857     2.24537
   443   2     2.75000   -11.11399    -2.24537
   444   2    11.00000    -3.17543     2.24537
   445   1     0.00000     3.17543    11.22683
   446   2     2.75000     1.58771   -11.22683
   447   2     8.25000     6.35085     2.24537
   448   1    -1.37500    10.32014    -2.24537
   449   2    -9.62500     3.96928     2.24537
   450   2    -8.25000    -6.35085    -2.24537
   451   2     1.37500   -10.32014     2.24537
   452   2     9.62500    -3.96928    -2.24537
   453   2     6.87500     5.55700     4.49073
   454   1    -1.37500     8.73242    -4.49073
   455   2    -8.25000     3.17543     4.49073
   456   2    -6.87500    -5.55700    -4.49073
   457   2     1.37500    -8.73242     4.49073
   458   2     5.50000     4.76314     6.73610
   459   2    -1.37500     7.14471    -6.73610
   460   2    -6.87500     2.38157     6.73610
   461   2    -5.50000    -4.76314    -6.73610
   462   2     1.37500    -7.14471     6.73610
   463   2     6.87500    -2.38157    -6.73610
   464   2     4.12500     3.96928     8.98146
   465   2    -1.37500     5.55700    -8.98146
   466   3    -4.12500    -3.96928    -8.98146
   467   2     1.37500    -5.55700     8.98146
   468   2     5.50000    -1.58771    -8.98146
   469   2     6.87500     8.73242     2.24537
   470   2    -4.12500    10.32014    -2.24537
   471   2   -11.00000     1.58771     2.24537
   472   2    -6.87500    -8.73242    -2.24537
   473   2     4.12500   -10.32014     2.24537
   474   2    11.00000    -1.58771    -2.24537
   475   2     5.50000     7.93857     4.49073
   476   2    -4.12500     8.73242    -4.49073
   477   2    -9.62500     0.79386     4.49073
   478   1    -5.50000    -7.93857    -4.49073
   479   3     4.12500    -8.73242     4.49073
   480   2     9.62500    -0.79386    -4.49073
   481   2     4.12500     7.14471     6.73610
   482   2    -4.12500     7.14471    -6.73610
   483   3    -8.25000     0.00000     6.73610
   484   1    -4.12500    -7.14471    -6.73610
   485   2     4.12500    -7.14471     6.73610
   486   2     8.25000     0.00000    -6.73610
   487   2    -4.12500     5.55700    -8.98146
   488   2    -6.87500    -0.79386     8.98146
   489   2    -2.75000    -6.35085    -8.98146
   490   2     4.12500    -5.55700     8.98146
   491   2    16.50000     0.00000    -0.00000
   492   1     8.25000    14.28942    -0.00000
   493   2    -8.25000    14.28942    -0.00000
   494   2    -8.25000   -14.28942    -0.00000
   495   2     8.25000   -14.28942    -0.00000
   496   2    -8.25000    -4.76314    13.47219
   497   2     0.00000    -9.52628   -13.47219
   498   2     8.25000     4.76314   -13.47219
   499   2    -8.25000     4.76314   -13.47219
   500   2    15.12500     2.38157    -0.00000
   501   2    15.12500    -0.79386     2.24537
   502   2     5.50000    14.28942    -0.00000
   503   2     6.87500    13.49556     2.24537
   504   2     8.25000    12.70171    -2.24537
   505   2    -9.62500    11.90785    -0.00000
   506   2    -6.87500    13.49556     2.24537
   507   2    -8.25000    12.70171    -2.24537
   508   3   -15.12500    -2.38157    -0.00000
   509   2   -15.12500    -0.79386     2.24537
   510   2    -5.50000   -14.28942    -0.00000
   511   2    -6.87500   -13.49556    -2.24537
   512   2     9.62500   -11.90785    -0.00000
   513   2     8.25000   -12.70171     2.24537
   514   2     6.87500    -2.38157    13.47219
   515   2     1.37500    -7.14471   -13.47219
   516   2    -1.37500    -7.14471   -13.47219
   517   2     5.50000     4.76314   -13.47219
   518   2    13.75000     4.76314    -0.00000
   519   2    13.75000    -1.58771     4.49073
   520   2    13.75000     1.58771    -4.49073
   521   2     2.75000    14.28942    -0.00000
   522   2     5.50000    12.70171     4.49073
   523   2     8.25000    11.11399    -4.49073
   524   2   -11.00000     9.52628    -0.00000
   525   1    -5.50000    12.70171     4.49073
   526   2   -13.75000    -4.76314    -0.00000
   527   2   -13.75000    -1.58771     4.49073
   528   2   -13.75000     1.58771    -4.49073
   529   2    -2.75000   -14.28942    -0.00000
   530   2    -8.25000   -11.11399     4.49073
   531   1    -5.50000   -12.70171    -4.49073
   532   2    11.00000    -9.52628    -0.00000
   533   2     5.50000   -12.70171    -4.49073
   534   2     5.50000     0.00000    13.47219
   535   2     2.75000    -4.76314    13.47219
   536   2    -2.75000     4.76314    13.47219
   537   2     2.75000    -4.76314   -13.47219
   538   1    -2.75000    -4.76314   -13.47219
   539   2     2.75000     4.76314   -13.47219
   540   2    12.37500     7.14471    -0.00000
   541   2    12.37500    -2.38157     6.73610
   542   2    12.37500     2.38157    -6.73610
   543   2     0.00000    14.28942    -0.00000
   544   2     4.12500    11.90785     6.73610
   545   2     8.25000     9.52628    -6.73610
   546   3   -12.37500     7.14471    -0.00000
   547   2    -8.25000     9.52628    -6.73610
   548   2   -12.37500    -7.14471    -0.00000
   549   2   -12.37500    -2.38157     6.73610
   550   3   -12.37500     2.38157    -6.73610
   551   3     0.00000   -14.28942    -0.00000
   552   2    -8.25000    -9.52628     6.73610
   553   2    -4.12500   -11.90785    -6.73610
   554   2    12.37500    -7.14471    -0.00000
   555   3     8.25000    -9.52628     6.73610
   556   2     4.12500   -11.90785    -6.73610
   557   2     4.12500     2.38157    13.47219
   558   2     0.00000    -4.76314    13.47219
   559   2    -4.12500     2.38157    13.47219
   560   2     4.12500    -2.38157   -13.47219
   561   3    -4.12500    -2.38157   -13.47219
   562   2     0.00000     4.76314   -13.47219
   563   2    11.00000     3.17543    -8.98146
   564   2    -2.75000    14.28942    -0.00000
   565   2     2.75000    11.11399     8.98146
   566   2     8.25000     7.93857    -8.98146
   567   2    -8.25000     7.93857    -8.98146
   568   2   -11.00000    -9.52628    -0.00000
   569   2   -11.00000    -3.17543     8.98146
   570   2   -11.00000     3.17543    -8.98146
   571   2    -8.25000    -7.93857     8.98146
   572   1    -2.75000   -11.11399    -8.98146
   573   2    13.75000    -4.76314    -0.00000
   574   1     8.25000    -7.93857     8.98146
   575   2     2.75000   -11.11399    -8.98146
   576   1     2.75000     4.76314    13.47219
   577   2    -2.75000    -4.76314    13.47219
   578   2    -5.50000     0.00000    13.47219
   579   1     5.50000     0.00000   -13.47219
   580   2    -5.50000     0.00000   -13.47219
   581   2    -2.75000     4.76314   -13.47219
   582   2     9.62500    -3.96928    11.22683
   583   2     9.62500     3.96928   -11.22683
   584   2    -5.50000    14.28942    -0.00000
   585   2     1.37500    10.32014    11.22683
   586   2     8.25000     6.35085   -11.22683
   587   2   -15.12500     2.38157    -0.00000
   588   2    -1.37500    10.32014    11.22683
   589   2    -8.25000     6.35085   -11.22683
   590   1    -9.62500   -11.90785    -0.00000
   591   2    -9.62500    -3.96928    11.22683
   592   2    -9.62500     3.96928   -11.22683
   593   2     5.50000   -14.28942    -0.00000
   594   1    -1.37500   -10.32014   -11.22683
   595   2    15.12500    -2.38157    -0.00000
   596   2     8.25000    -6.35085    11.22683
   597   3     1.37500   -10.32014   -11.22683
   598   2    -5.50000    -4.76314    13.47219
   599   2    -6.87500    -2.38157    13.47219
   600   2     6.87500     2.38157   -13.47219
   601   2    -6.87500     2.38157   -13.47219
   602   2    -5.50000     4.76314   -13.47219
   603   2    13.75000     3.17543    -2.24537
   604   2     4.12500    13.49556     2.24537
   605   2    -9.62500    10.32014    -2.24537
   606   2   -13.75000    -3.17543     2.24537
   607   2    -4.12500   -13.49556    -2.24537
   608   2     9.62500   -10.32014     2.24537
   609   3     4.12500    -2.38157    13.47219
   610   2    12.37500     3.96928    -4.49073
   611   1     2.75000    12.70171     4.49073
   612   2   -12.37500    -3.96928     4.49073
   613   2     1.37500    -2.38157    13.47219
   614   2    -1.37500    -2.38157   -13.47219
   615   2    11.00000     4.76314    -6.73610
   616   2     1.37500    11.90785     6.73610
   617   2    -9.62500     7.14471    -6.73610
   618   1   -11.00000    -4.76314     6.73610
   619   2    -1.37500   -11.90785    -6.73610
   620   3     9.62500    -7.14471     6.73610
   621   2    -1.37500    -2.38157    13.47219
   622   3    -2.75000     0.00000   -13.47219
   623   2     9.62500     5.55700    -8.98146
   624   2    -9.62500     5.55700    -8.98146
   625   2    -9.62500    -5.55700     8.98146
   626   2     0.00000   -11.11399    -8.98146
   627   2     9.62500    -5.55700     8.98146
   628   2    -4.12500    -2.38157    13.47219
   629   2    -4.12500     2.38157   -13.47219
   630   2    13.75000     1.58771     2.24537
   631   2     5.50000    12.70171    -2.24537
   632   2    -8.25000    11.11399     2.24537
   633   2   -13.75000    -1.58771    -2.24537
   634   3    -5.50000   -12.70171     2.24537