3598
 Atoms. Timestep: 6000
2 -0.00412024 -0.174439 0.0634676
1 1.40332 2.22395 -0.00431475
2 -1.32372 2.38192 0.0182072
2 -2.76443 0.00284883 0.0916784
2 -1.30715 -2.68465 -0.0715655
2 1.42032 -2.39712 -0.00622405
2 1.50174 -0.865941 2.25965
3 0.018146 1.44603 2.16114
2 -1.39697 -0.916087 2.31233
2 -0.0195416 -1.78397 -2.22183
2 1.23023 0.631352 -2.1713
2 -1.30767 0.844522 -2.19922
2 5.52317 -0.0403828 0.0692637
1 -2.80293 4.68965 0.0358232
2 -5.45107 0.0777188 -0.0925305
2 -2.72886 -4.74863 -0.0197275
2 2.65944 -4.75471 -0.0613072
2 -0.0780521 3.17724 4.27937
2 -2.58594 -1.76677 4.4712
2 -0.133159 -3.20972 -4.36709
2 2.85056 1.46431 -4.31433
2 -2.53249 1.54963 -4.34937
2 4.17624 2.19732 0.0912474
2 4.07471 -0.655312 2.1185
2 3.99293 0.64734 -2.07526
2 -0.23607 4.74403 0.0606049
2 1.41009 3.71288 2.09709
2 2.7003 2.94266 -2.11232
2 -3.91817 2.5488 -0.0189225
2 -2.79804 3.2342 -2.3383
2 -4.08872 -2.42939 0.0891179
1 -4.30538 -0.742119 2.21674
2 -3.98041 0.740894 -2.24022
2 0.105692 -4.91667 0.0243499
2 -2.83431 -3.46226 2.17872
2 4.07685 -2.28389 -0.0928328
2 2.89235 -3.05831 2.10945
1 1.27014 0.637557 4.452
2 -0.0108596 -1.75447 4.40557
2 -1.34947 0.665546 4.41778
2 1.54627 -0.888746 -4.40884
2 -1.39135 -0.856232 -4.43837
3 0.0641318 1.43525 -4.40894
3 2.67446 1.60354 2.20519
2 0.075045 3.14444 -2.18864
2 -2.87729 1.72393 2.2174
2 -2.51838 -1.56041 -2.09454
2 0.0243041 -3.28499 2.1972
2 2.83598 -1.68922 -2.1766
2 8.42451 -0.00802023 0.138891
2 3.9885 6.81234 -0.132722
2 -3.87166 7.15766 0.0741318
2 -8.26241 -0.0620332 0.0862771
2 -4.13229 -7.161 0.0327266
2 4.09845 -7.12285 -0.167047
2 4.00384 -2.17406 6.60374
3 0.00106561 4.65612 6.57656
2 -4.02168 -2.2929 6.69301
3 0.0167328 -4.61279 -6.49752
2 4.32333 2.39812 -6.39949
2 -3.95155 2.31382 -6.74401
2 6.84575 2.11602 0.0216591
2 6.84345 -0.771349 2.25624
2 1.41323 7.0278 0.198278
2 2.80531 6.12662 2.20562
2 4.13737 5.22454 -2.16811
2 -5.48534 4.88119 0.138077
2 -2.72061 6.1858 2.25932
1 -3.94395 5.49484 -2.76978
2 -6.66865 -2.28615 0.0174869
2 -7.09828 -0.847216 2.30186
2 -6.77677 0.776327 -2.23364
2 -1.30348 -7.20174 -0.0244967
2 -4.21925 -5.66411 2.45277
3 -2.68136 -6.43888 -2.26883
1 5.47713 -4.97446 0.0217049
2 3.96422 -5.53356 2.37108
2 2.71247 -6.17856 -2.2495
2 1.524 -2.25447 6.70211
2 -1.41691 2.51109 6.65776
2 1.3518 -2.32002 -6.60991
2 -1.34689 -2.35349 -6.53884
2 1.57437 2.35478 -6.64331
2 5.30321 4.63033 0.0417222
2 5.32769 -1.71166 4.42726
2 5.62644 1.43619 -4.47341
2 -1.45111 7.12765 -0.0544459
2 1.29889 5.41763 4.44164
2 3.90298 3.91347 -4.34747
2 -6.84044 2.5223 -0.121911
2 -1.34969 5.53569 4.62081
2 -4.01233 3.90779 -4.61279
2 -5.51861 -4.87428 0.142977
2 -5.35427 -1.6363 4.30245
2 -5.37277 1.53961 -4.36502
2 1.42028 -7.08586 0.114394
2 -4.03438 -4.05869 4.48555
2 -1.30188 -5.62541 -4.45968
2 7.0026 -2.17385 0.105523
2 4.0752 -4.01964 4.61065
2 1.42725 -5.49107 -4.38723
2 1.16991 2.46275 6.52536
2 -1.28087 -2.39295 6.82781
2 -2.60788 0.0328254 6.66615
2 2.9023 0.00204026 -6.57244
2 -1.23569 2.3897 -6.77924
2 5.41439 2.96158 -2.22694
2 -0.0339237 6.23167 2.11562
2 -5.55912 3.40137 -2.20884
2 -5.49384 -3.14641 2.21949
2 0.0790354 -6.39471 -2.08587
2 5.33719 -3.16614 2.21539
2 0.0231495 -0.00769378 6.52318
2 -0.00847936 -0.151164 -6.51034
2 5.43927 1.69879 2.43687
2 1.51235 5.41958 -2.15552
2 -4.16687 4.08552 2.18081
2 -5.22418 -1.46819 -2.42012
2 -1.46599 -5.75238 2.19326
2 4.13575 -3.89809 -2.1391
2 4.00459 0.725804 4.36517
2 1.36753 3.78599 -4.24412
2 -2.64631 3.1442 4.32612
2 2.71367 -3.21065 -4.66769
2 4.11513 4.09614 2.37247
2 -1.25675 5.37302 -2.28927
2 -5.51203 1.56792 2.12645
2 -3.99814 -3.8499 -2.16633
2 1.45496 -5.53167 2.3002
1 5.84724 -1.61783 -2.63236
2 2.69279 2.94355 4.40136
3 -1.2316 3.92265 -4.56159
2 -4.0362 0.701235 4.40439
2 1.36813 -4.07973 4.64628
2 4.28384 -0.8716 -4.381
2 10.966 -0.00119874 0.148741
2 5.47075 9.19941 0.204999
2 -5.79009 9.73002 -0.0055241
2 -10.8732 -0.148917 -0.0553682
3 -5.55688 -9.47031 0.0199252
2 5.36602 -9.47069 0.00308717
2 5.41269 -2.97588 8.76978
1 -5.36157 -3.25272 9.0143
2 0.017402 -6.19914 -8.68734
2 5.55713 3.0937 -8.8551
2 -5.3582 3.20928 -9.01183
2 9.71656 2.3699 0.00767268
2 9.4382 0.652309 -2.31308
2 2.68813 9.30935 0.114055
1 4.14783 8.67591 2.36029
3 5.40384 7.80027 -1.93169
2 -6.75514 7.1347 0.0917251
2 -4.23792 8.68912 2.07778
2 -5.45881 7.94911 -2.18253
2 -9.51399 -2.58324 0.0529782
2 -9.61756 -0.909142 2.37954
2 -9.49731 0.803469 -2.21423
2 -2.82569 -9.44721 -0.0545918
2 -5.50008 -8.07813 2.17444
2 -4.09324 -8.64511 -2.15783
2 6.84778 -7.20729 0.101417
2 5.42266 -8.07704 2.19737
1 2.67315 -11.2841 -2.23961
2 4.10298 -0.71454 8.85869
2 2.85173 -3.2711 8.84238
2 1.41594 -3.86718 -9.01048
2 -1.40664 -3.93299 -8.70135
2 2.8951 3.30497 -8.9139
2 8.13618 4.47723 0.0610495
3 7.98998 -1.609 4.36774
2 8.09869 1.53078 -4.58724
2 -0.0130406 9.26083 -0.131109
2 2.7625 7.79531 4.2376
2 5.25976 6.20306 -4.64212
2 -2.79371 7.75349 4.53143
2 -8.2696 -4.80947 0.0100542
2 -8.14887 -1.61924 4.60446
2 -8.03549 1.64599 -4.19446
2 0.0655152 -9.53396 0.077379
2 -5.60763 -6.44433 4.56729
2 -2.58585 -7.94427 -4.27308
2 8.45702 -4.54172 0.0631691
2 5.39156 -6.56523 4.60463
2 2.85414 -8.06627 -4.32261
2 2.66259 1.70131 8.90258
2 0.0708968 -3.19701 8.85729
2 -2.70689 1.48452 9.14446
2 2.91407 -1.57854 -8.89636
2 -2.5398 -1.68707 -8.81046
2 0.275892 3.22968 -8.77784
2 6.90349 6.85483 0.0262063
2 6.78958 -2.30216 6.48733
2 6.97768 2.28883 -6.80899
2 -2.74903 9.5019 -0.279784
2 1.18268 7.08256 6.65951
2 5.39521 4.67636 -6.6891
2 -1.49889 7.00448 6.70653
3 -6.86442 -7.15761 0.203442
2 -6.75777 -2.34736 6.62273
2 -6.75213 2.30336 -6.68256
2 2.77337 -9.64518 -0.180099
2 -5.39432 -4.7626 6.76933
2 -1.27906 -7.09848 -6.41782
2 1.38141 -7.09229 -6.49432
2 1.07943 3.98612 8.79372
2 -2.72838 -3.33749 9.10404
3 -4.2118 -0.662321 8.78666
2 -3.79451 0.753067 -9.01977
2 -2.53577 3.06246 -8.83187
2 8.19983 2.9481 -2.2228
2 -7.07031 5.58703 -2.1678
2 -8.25855 -3.36971 2.29397
2 -1.18313 -8.7825 -2.23155
2 7.01041 -5.70047 2.28694
2 1.22743 -0.822786 8.98733
2 0.0706861 -1.65223 -8.93583
2 6.79395 3.866 -4.36539
2 -0.135544 7.88369 4.3651
2 -6.70599 3.92883 -4.49094
2 -6.64337 -4.03598 4.48005
2 0.200192 -8.08812 -4.37759
2 6.52506 -4.1041 4.55327
2 -1.43393 -0.964502 9.13405
2 -1.15616 0.653694 -8.84216
2 8.36063 1.63509 2.36536
2 2.81864 7.69165 -2.20172
2 -5.42696 6.26245 2.34451
2 -8.16918 -1.59902 -2.15015
2 -2.77256 -7.94513 2.29112
2 5.52542 -6.32418 -2.30331
2 6.80077 0.790157 4.60715
2 -4.19225 5.35851 4.60673
2 -6.74166 -0.784081 -4.4513
2 -2.56631 -6.38214 4.581
2 4.1227 -5.47139 -4.40308
2 5.30396 0.0636892 6.5998
2 2.67569 4.73823 -6.61308
2 -2.62971 4.75102 6.72614
2 -5.41761 -0.37105 -6.55009
2 -2.6795 -4.60226 6.72493
2 2.62393 -4.66977 -6.87386
2 6.78651 5.53 -2.0538
2 -1.59969 8.69222 2.0879
2 -8.39951 3.22755 -2.07622
2 -7.00004 -5.72177 2.28102
2 1.51133 -8.62676 -2.15424
2 8.09245 -3.1484 2.27372
2 -0.0563964 1.53701 9.0187
2 1.64211 0.871716 -8.81878
2 6.88955 3.8115 2.3353
2 0.0910391 7.63803 -2.33546
2 -7.03855 3.85933 2.18531
2 -6.65772 -3.84611 -2.26842
2 0.00270342 -7.91581 2.13642
2 6.74729 -3.79665 -2.14637
3 5.45699 2.98784 4.5773
2 0.00672023 6.09662 -4.54358
2 -5.31503 2.9598 4.52783
2 -5.26273 -3.18076 -4.40148
2 0.14859 -6.29516 4.49337
2 5.50399 -3.17565 -4.60224
2 4.02664 2.33229 6.60084
2 0.00916118 4.71884 -6.75153
2 -3.97808 2.35084 6.77177
2 -4.03064 -2.68225 -6.65571
2 -0.0516947 -4.69911 6.69381
3 4.23008 -2.35902 -6.65828
2 5.43147 6.31714 2.18366
2 -2.71944 7.71272 -2.47876
2 -8.34419 1.6189 2.18354
2 -5.33571 -6.33511 -2.05403
2 2.79573 -8.10494 2.23775
1 8.34809 -1.78537 -2.12642
2 -6.71214 0.671553 4.47784
2 -3.9042 -5.40132 -4.30676
2 2.80405 -6.51515 4.47921
2 2.67352 4.79946 6.58824
2 -5.30394 -0.0593374 6.62453
1 4.87682 -4.75308 7.23363
2 5.34297 0.0349809 -6.73003
2 6.61131 11.7312 0.138846
2 -13.6148 -0.119166 -0.0920778
2 -6.85437 -11.8354 -0.0172201
2 6.54943 -11.8939 -0.185202
2 6.78369 -3.8286 11.0457
3 -0.132294 7.72849 11.0707
2 -6.75828 -3.85223 11.3393
2 -0.0463443 -7.98266 -11.1317
3 6.6919 3.79683 -11.1822
2 12.2089 2.25973 -0.0497876
2 12.1747 -0.767642 2.30617
3 12.1045 0.756215 -2.22317
1 4.11393 11.6942 0.0682756
2 5.55539 10.9343 2.36564
2 6.72376 10.0883 -2.16945
2 -8.33855 9.27372 -0.0697529
2 -5.64523 11.1561 2.39415
2 -6.80084 10.1494 -2.37021
2 -12.2609 -2.32308 -0.0754859
2 -12.2592 -0.819511 2.29942
2 -12.3637 0.552519 -2.31875
2 -4.12838 -11.8673 0.0280426
2 -6.83634 -10.3649 2.37671
2 -5.47027 -11.0147 -2.33003
1 6.63987 -10.4048 2.1341
2 5.59629 -10.9495 -2.49358
2 5.29149 -1.57826 11.05
2 4.08317 -4.09588 11.0432
2 -1.30779 5.30427 11.0687
2 1.4687 -5.53416 -11.1606
1 -1.25201 -5.42566 -11.0616
2 4.2085 3.96882 -11.0224
1 9.61478 6.58413 0.0913837
2 10.9003 -1.52757 4.51758
2 10.8137 1.46465 -4.43231
2 1.24066 11.6201 0.0918215
2 -9.25995 6.9338 0.163034
2 -4.18994 10.1434 4.53961
3 -6.91556 8.77089 -4.53082
2 -10.9025 -4.83623 0.131051
2 -11.0824 -1.70379 4.59827
2 -10.7436 1.57915 -4.48076
2 -1.34289 -11.8175 0.0350697
3 -6.98623 -8.6755 4.52337
2 -4.10441 -10.2088 -4.35434
2 9.47599 -7.15503 0.0560723
2 6.71715 -8.94234 4.45585
3 4.03584 -10.3432 -4.42193
2 3.87212 0.842801 11.0171
2 1.33165 -4.07656 11.2919
2 -2.63655 3.14969 11.2082
2 2.68572 -2.93244 -11.1122
3 -2.63788 -3.08312 -10.8504
2 1.56564 3.98953 -11.0416
2 9.60342 2.36924 -6.80358
2 -1.57831 11.8023 -0.0594968
2 2.54328 9.22599 6.61067
2 6.70395 7.08389 -6.70914
2 -10.7515 4.7255 -0.0978742
2 -2.8484 9.47729 6.70756
3 -6.78735 7.1876 -6.73453
2 -9.52373 -7.10695 0.132916
2 -9.68845 -2.46298 6.75323
3 -9.2385 2.27073 -6.61026
2 1.40578 -11.8768 -0.0874242
2 -6.64255 -7.28787 6.89938
2 -2.74879 -9.26345 -6.44595
2 10.8955 -4.56559 -0.0765244
2 6.70525 -7.1606 6.64038
2 2.67606 -9.5564 -6.51931
2 -1.4144 -3.72934 11.3475
1 -4.08049 0.699338 11.2248
2 4.04415 -0.702331 -11.101
2 -3.90901 -0.862382 -10.9987
2 -1.25915 4.06394 -10.9099
2 8.0133 9.36048 -0.0969484
2 8.37064 3.21558 -9.06284
2 -4.31968 11.7848 -0.0469691
2 1.16496 8.54697 8.80256
2 6.77686 5.33618 -8.88198
2 -12.1577 2.17826 -0.191182
2 -1.55182 8.61619 8.89845
2 -8.24395 -9.46543 0.102739
2 -7.90484 -3.16741 8.92457
2 -7.96438 3.23203 -8.76804
2 -6.51788 -5.85196 9.13699
2 -1.37889 -8.52767 -8.70319
2 12.1391 -2.23117 0.143864
2 6.8269 -5.46451 8.77119
2 1.27744 -8.57599 -8.77339
2 1.23133 5.46268 10.9727
2 -4.062 -3.96215 11.1846
2 -5.23081 -1.48874 11.052
2 5.33362 1.5929 -11.1045
3 -5.23646 1.42207 -11.0207
2 -3.97648 3.96422 -11.0993
2 10.7642 3.09337 -2.22602
2 2.78817 10.9757 2.47553
2 -8.24541 7.79038 -2.37961
2 -10.9964 -3.24845 2.25913
2 -2.59233 -10.9862 -2.18791
2 8.32886 -8.01181 2.16861
2 2.64157 -1.74484 11.1725
2 -0.0100211 -3.20112 -11.1965
2 9.43562 4.0081 -4.44152
2 1.36942 10.1108 4.23258
2 -7.94043 6.31565 -4.49222
2 -9.40919 -3.94382 4.44865
3 -1.40994 -10.1386 -4.369
2 8.14857 -6.46804 4.56271
2 0.00257583 -1.53159 11.2687
3 -1.28661 -0.757532 -11.0316
2 8.08433 4.58619 -6.71553
2 -8.05331 4.7014 -6.54493
2 -8.08627 -4.81025 6.90019
2 -0.0156472 -9.63958 -6.59532
2 7.95128 -4.77307 6.60158
2 -2.64258 -1.47577 11.2503
2 -2.73135 1.6697 -11.4003
2 -6.87817 8.55196 2.28186
2 -10.8095 -1.67032 -2.41872
2 -4.06738 -10.2733 2.17354
2 6.94207 -8.62677 -2.11482
2 9.54653 0.700499 4.51164
2 -5.44217 7.72476 4.4459
2 -9.29678 -0.883481 -4.39902
2 -4.26464 -8.68134 4.35683
2 5.29583 -7.86443 -4.30755
2 8.16492 -0.171923 6.69732
2 4.05596 7.21517 -6.68704
2 -4.09168 7.0253 6.82135
3 -8.10412 0.105382 -6.71087
2 -4.02318 -6.96271 6.70438
2 4.00087 -7.06071 -6.63075
2 6.80655 -0.73158 8.71677
2 3.95579 5.65554 -8.82866
2 -6.63441 0.846633 -8.84848
2 -3.93783 -5.56051 8.93263
2 9.41543 5.38785 -2.04426
2 -0.122821 11.0167 2.18443
3 -9.63397 5.54127 -2.18343
2 9.58035 -5.47898 2.28651
2 1.23385 0.858608 11.0927
2 1.28256 -0.785767 -11.1166
2 7.95222 6.21536 -4.38081
2 -1.4266 10.269 4.39525
2 -9.5142 4.02543 -4.40609
2 -8.2659 -6.42388 4.44031
2 1.31052 -10.3696 -4.37785
2 9.23531 -3.91592 4.51522
2 -1.35715 0.89897 11.3973
1 -0.0817538 1.66124 -10.9898
2 9.50841 3.97066 2.12656
2 1.26275 10.1622 -2.26461
2 -8.14011 6.25842 2.33634
2 -9.49959 -4.02018 -2.3204
2 -1.25653 -10.2507 2.36205
2 8.21061 -6.33372 -2.22883
2 8.07359 3.14786 4.65432
3 1.40457 8.76729 -4.42508
2 -6.71839 5.35262 4.57956
1 -8.03896 -3.15245 -4.56408
2 -1.25802 -8.73521 4.4189
2 6.9494 -5.56903 -4.49039
3 6.71272 2.2981 6.7689
2 1.16559 7.03171 -6.65866
2 -5.49068 4.74228 6.75405
2 -1.28841 -7.07402 6.82256
2 5.4287 -4.74164 -6.7763
2 5.34909 1.52799 8.90419
2 -4.089 3.84106 8.95598
2 -5.23396 -1.60271 -8.80919
2 4.0448 -3.82589 -8.90193
2 8.07026 7.84288 -2.3204
2 -2.88646 11.0438 2.1442
2 -10.9454 2.89372 -2.35888
2 -8.29147 -8.10569 2.39054
2 10.7945 -3.0856 2.39987
1 -0.0555814 3.05934 11.3248
2 2.71318 1.58877 -11.1081
1 -1.44709 10.0586 -2.3175
2 -9.61648 4.02593 2.26177
2 -8.1322 -6.27016 -2.02897
2 1.37441 -10.3788 2.3245
2 9.51474 -4.00618 -2.39192
1 -1.40798 8.51723 -4.39492
2 -8.16314 3.07012 4.41465
2 -6.82683 -5.56581 -4.26431
2 1.53466 -8.71519 4.37937
3 8.09653 -3.2987 -4.68271
2 5.42944 4.60854 6.79147
2 -1.52429 6.84752 -6.64843
2 -6.79003 2.32696 6.56867
2 -5.34067 -4.84582 -6.58371
2 1.44483 -7.09271 6.61311
2 6.78109 -2.42555 -6.67389
2 -1.28457 5.49283 -8.80377
2 -5.39663 1.64469 8.97172
3 -3.94683 -3.87984 -8.87105
2 1.41047 -5.40101 8.70915
2 5.53728 -1.52423 -8.79192
2 7.04385 8.5607 2.34107
2 -10.8618 1.53169 2.23725
2 -6.9092 -8.57638 -2.02949
2 10.8575 -1.62733 -2.38559
2 5.63149 7.76698 4.50041
2 -4.20343 8.5972 -4.43966
2 -9.69624 0.750363 4.5141
1 -5.36467 -7.6276 -4.39224
2 9.33789 -0.961654 -4.43471
2 4.21558 7.00524 6.59489
2 -4.15275 7.06446 -6.63467
3 -8.02412 -0.157919 6.77756
1 -3.96331 -6.9497 -6.4644
2 3.99539 -7.03678 6.85164
2 7.99285 -0.122528 -6.6813
2 2.5826 6.28403 8.79457
2 -4.0444 5.56697 -8.66017
2 -6.63459 -0.82599 8.95462
2 -2.6856 -6.1152 -8.53581
2 6.8069 0.628612 -8.80441
2 16.4192 -0.0704531 -0.161264
1 7.95021 14.1671 0.0626865
2 -8.32168 14.1732 0.0319609
2 -16.2823 -0.230796 -0.0529033
2 -8.18804 -14.1134 0.0356101
2 8.3123 -14.263 0.0774972
2 7.98935 -4.91005 13.3074
2 -0.146605 9.10485 13.3557
2 -8.11499 -4.55693 13.4112
2 -0.110863 -9.53155 -13.1785
2 8.19963 4.62234 -13.2765
2 -8.06973 4.84833 -13.3778
2 14.993 2.47445 -0.0409563
2 14.9769 -0.615756 1.96451
2 14.7404 0.676243 -2.3105
2 5.39352 14.0725 -0.0515113
2 6.86689 13.2669 2.30192
2 8.06753 12.5344 -2.19151
2 -9.51604 11.8375 -0.0982552
2 -6.6624 13.5389 2.40467
2 -8.30555 12.5848 -2.23306
3 -14.8576 -2.52011 -0.0049485
2 -14.9354 -0.813402 2.09836
2 -5.57971 -14.1085 0.0567761
2 -6.76958 -13.2309 -2.32389
2 9.6071 -11.8879 -0.15497
2 8.01077 -12.4318 2.08701
2 6.90688 -13.6267 -2.17881
2 6.56138 -2.34474 13.2692
2 5.20831 -4.90261 13.1377
2 -1.40983 6.88815 13.1994
2 1.5268 -7.20667 -13.3185
2 -1.12631 -6.95782 -13.3491
2 13.4059 4.6633 -0.0235786
2 13.7904 -1.4835 4.52531
2 2.79781 14.0824 0.0191931
2 5.46549 12.2628 4.55966
2 8.11863 10.9856 -4.23844
2 -10.9073 9.33727 -0.0732606
1 -5.8212 13.7456 6.25693
2 -8.05156 11.1272 -4.52459
2 -13.5524 -4.80301 0.107284
2 -13.7256 -1.65168 4.40521
2 -13.397 1.62911 -4.74701
2 -2.83558 -14.0983 -0.180618
1 -5.34114 -12.6402 -4.38983
2 10.8895 -9.48586 -0.105723
2 8.32485 -10.997 4.30746
2 5.52184 -12.7178 -4.61912
2 5.31641 -0.1098 13.2366
2 2.55927 -4.56996 13.5852
2 -2.6835 4.57362 13.6561
2 2.81874 -4.71592 -13.2139
1 -2.7418 -4.50198 -13.1125
2 2.80428 4.61816 -13.2066
2 12.2273 7.09702 -0.0366657
2 12.2127 -2.292 6.55885
2 -0.0430685 14.0622 0.0359316
2 4.06626 11.7511 6.78198
2 8.06429 9.43242 -6.32338
3 -12.405 6.74592 -0.0220979
2 -4.30416 11.7044 6.56308
2 -7.93758 9.42317 -6.81496
2 -12.4017 -7.25146 0.125156
2 -12.2862 -2.44647 6.77532
3 -0.201792 -14.3006 -0.239319
2 -7.93396 -9.80502 6.93944
2 -4.06766 -11.7935 -6.50663
2 12.2326 -7.1194 -0.0178294
3 8.2365 -9.65673 6.65397
2 3.88756 2.31327 13.2545
2 0.0352826 -4.8601 13.4633
2 -4.19697 2.38169 13.2594
2 4.16801 -2.49029 -13.2281
3 -4.24994 -2.33911 -12.994
2 -0.19338 4.4925 -13.2934
3 10.6392 9.20117 -0.0755858
2 10.9502 -3.01876 8.9948
2 10.9764 3.2462 -8.75208
2 -2.87121 14.2168 -0.116903
2 2.67729 10.8204 8.98832
2 -13.5688 4.5734 -0.205202
2 -2.80665 11.1057 8.81753
2 -8.08471 8.09633 -8.94515
2 -10.9033 -9.49195 0.0329201
2 -10.7466 -3.46134 8.91097
2 -10.7306 3.12727 -9.03732
2 2.77335 -14.2808 0.109672
1 -2.58535 -11.0949 -8.76732
2 13.4781 -4.82342 0.000265008
1 8.31209 -7.82569 8.89955
2 2.66522 -10.8344 -9.03182
1 2.70554 4.54249 13.22
2 -5.42299 0.0489192 13.4145
1 5.53721 -0.0420935 -13.339
2 -5.22811 0.0223558 -13.3023
2 -2.73762 4.55767 -13.3211
2 9.26892 11.5577 0.100743
2 9.41655 -3.81777 11.1374
2 9.6879 3.927 -11.1452
2 -5.6901 14.1306 -0.10484
2 1.2472 9.83657 11.1256
2 8.26684 6.09354 -11.0797
2 -14.8532 2.33723 -0.324026
2 -1.5148 9.96898 11.0598
2 -8.00746 6.41845 -11.087
1 -9.73793 -11.7371 0.580755
2 -9.4978 -4.01745 11.1854
2 -9.1562 3.9548 -11.1874
2 5.50319 -14.4411 0.0913607
1 -7.94169 -8.01277 8.9775
1 -1.60789 -10.3836 -11.0781
2 14.9267 -2.3408 -0.185026
2 8.05117 -6.10373 11.0089
3 1.33399 -10.1444 -11.113
3 1.19015 6.79118 13.3133
2 -5.24591 -4.58689 13.5045
2 -6.60321 -2.41559 13.385
2 6.76575 2.39348 -13.4464
2 -6.54922 2.43599 -13.2686
2 -5.25207 4.61984 -13.3025
2 13.5103 3.19085 -2.23066
2 4.24756 13.1793 2.32895
2 -9.54447 10.0293 -2.53686
2 -13.672 -3.24787 2.17413
2 9.69564 -10.298 1.96853
3 3.79928 -2.43142 13.3247
2 -0.276682 -4.42314 -13.3678
2 12.1757 3.86158 -4.58346
1 2.75227 12.0688 4.61612
2 -9.61505 8.43203 -4.47846
2 -12.3101 -3.95901 4.66926
1 -2.77941 -12.5315 -4.38546
2 9.5973 -8.61884 4.6079
2 1.20953 -2.27036 13.4261
2 10.9263 4.71292 -6.62298
2 1.32375 11.7164 7.07271
2 -9.35173 6.9865 -6.834
1 -10.7676 -4.93645 6.5017
2 -1.30228 -11.7014 -6.51383
3 -2.65268 -0.119002 -13.2047
2 9.58303 5.49205 -8.91653
3 -0.173607 10.9283 8.84462
2 -9.30073 5.62668 -9.0667
2 -9.37244 -5.67189 9.0024
2 -0.094369 -11.0774 -8.89303
2 9.48804 -5.40129 8.82971
2 -3.90779 -2.35707 13.2442
2 13.3744 1.49121 2.17341
2 5.40937 12.4624 -2.03576
2 -8.40575 11.02 2.2349
3 -5.33957 -12.5756 2.27752
2 8.26517 -11.0894 -2.28434
1 10.7632 1.40076 2.15585
2 5.49128 10.8425 -4.46728
2 -6.69677 10.221 4.53189
2 -12.101 -0.795028 -4.75179
2 -5.46658 -10.9017 4.55107
2 6.80443 -10.2535 -4.49938
2 10.6772 0.117931 6.67694
2 5.42765 9.34659 -6.62163
2 -5.58305 9.23559 6.75857
2 -10.6204 0.0688519 -6.69629
2 -5.19777 -9.39301 6.73116
2 5.36364 -9.36621 -6.66703
2 9.54293 -0.862638 8.95474
2 5.47238 7.78188 -9.07512
2 -4.18475 8.52454 8.8845
2 -9.3669 0.880095 -8.87546
3 3.94537 -8.64938 -8.76927
2 8.11486 -1.52383 11.0531
2 5.56775 6.26209 -11.1344
2 -2.85746 7.74074 11.0133
2 -7.84882 1.78864 -11.0913
2 -5.02292 -6.37047 11.2047
2 2.66636 -7.90742 -11.0892
2 12.1208 5.50037 -2.18136
2 1.50704 13.1825 2.19767
1 -10.9777 7.89531 -2.4786
2 -12.3548 -5.57947 2.33368
1 -1.52221 -13.3732 -2.17603
2 10.8614 -7.76031 2.28671
2 2.72283 0.02798 13.3721
2 1.32807 -2.25278 -13.36
2 10.8181 6.32019 -4.45244
1 -0.0177068 12.5491 4.24529
2 -10.9597 -6.40646 4.4171
2 -0.0746201 -12.5236 -4.18017
3 10.6736 -6.35102 4.45652
3 0.174615 0.164604 13.3972
2 0.00382735 -0.0926438 -13.2121
2 9.37869 7.08516 -6.46778
2 -1.18242 11.611 6.62897
2 -10.6184 4.64299 -6.7755
3 -9.29499 -7.30547 6.7532
1 1.39945 -11.7869 -6.59841
2 10.6485 -4.66821 6.53715
2 -1.63904 2.23974 -14.0226
2 12.1972 3.89732 2.33566
2 2.6207 12.5717 -2.15734
2 -9.57931 8.62758 2.17047
2 -12.1942 -3.97005 -2.33145
2 -2.73638 -12.5604 2.13637
2 9.56414 -8.80407 -2.30744
2 10.5438 2.94362 4.3385
2 2.63909 10.9449 -4.31816
2 -10.9047 -3.12524 -4.52287
2 -2.75679 -11.0976 4.51539
2 8.14328 -7.98645 -4.54916
2 9.46083 2.23057 6.69983
2 -6.99315 7.03335 6.88052
2 -9.44505 -2.40973 -6.71018
2 -2.60945 -9.26175 6.62388
2 6.68987 -7.12657 -6.92673
2 8.14471 1.57859 8.95816
2 -8.15701 -1.33835 -8.87157
2 5.20095 -6.37796 -8.88622
1 6.69597 0.758276 11.2193
2 2.80718 6.25986 -11.0279
2 -4.17503 5.18599 11.2831
2 -6.61396 -0.635558 -11.0176
1 -2.62061 -6.39258 11.0111
3 4.06098 -5.45067 -10.9585
2 10.8021 7.79123 -2.26421
2 -12.2387 5.51278 -2.32931
2 -10.8977 -8.00099 2.42604
2 1.34797 -13.503 -2.01776
2 12.1435 -5.546 2.17861
3 1.27612 2.25065 13.3875
3 2.72221 -0.054306 -13.2545
1 9.46026 8.88847 -4.34133
2 -2.82821 12.4637 4.54781
2 -12.0078 4.02303 -4.67037
2 2.72335 -12.6459 -4.4698
2 12.2044 -3.85554 4.42667
2 1.31153 2.17282 -13.3324
2 10.9462 6.2232 2.3979
2 -0.0308224 12.4177 -2.19555
2 -10.7959 6.37021 2.12528
2 -10.9888 -6.45705 -2.21236
2 0.0439324 -12.6266 2.16099
2 10.9142 -6.48845 -2.05073
2 9.5534 5.45554 4.36888
1 -9.46331 -5.48468 -4.52919
2 9.56887 -5.86296 -4.63898
2 8.16747 4.60696 6.74432
2 0.0519421 9.39144 -6.56145
2 -8.35647 4.51028 6.77489
2 -8.06268 -4.66247 -6.75825
1 0.0156577 -9.44693 6.48147
2 7.94916 -4.95954 -6.75074
2 6.92637 3.84533 8.94325
2 -6.89643 4.00698 9.012
2 -6.63489 -3.8526 -8.80683
2 0.171616 -7.84327 8.9322
2 6.80706 -4.14227 -9.06476
2 5.26346 3.19 10.9526
3 -0.0285071 6.24984 -11.0408
2 -5.47453 3.06405 11.1179
2 -5.42255 -3.05167 -10.9007
2 -0.183634 -6.33142 11.0582
2 5.4182 -3.11228 -11.0206
2 -4.04377 13.3903 2.09143
1 -9.65341 -10.2626 2.8676
2 4.00547 -13.4011 -2.28726
2 13.6028 -3.04506 2.17909
2 -0.0229322 4.56201 13.4252
3 4.06985 2.37163 -13.1461
2 9.50438 8.24004 2.08281
2 -2.94302 12.4025 -2.28968
2 -12.3236 3.86772 2.11137
2 -9.5541 -8.54461 -2.2326
2 2.70375 -12.6781 2.0914
2 12.2647 -3.96043 -2.2895
1 8.27061 7.90602 4.44931
2 -2.6731 11.0103 -4.51114
2 -10.9648 3.0755 4.40297
2 -8.23204 -7.84497 -4.43183
2 2.63913 -11.1285 4.53139
2 10.7109 -3.27129 -4.59673
1 6.7938 6.90395 6.82244
2 -2.64411 9.22624 -6.43307
2 -9.54573 2.26536 6.56196
2 -6.79775 -7.07635 -6.7061
2 2.88196 -9.40006 6.67407
3 9.63683 -2.51867 -6.77892
2 5.38033 6.33763 8.96403
2 -8.18625 1.50048 8.75787
2 -5.44098 -6.16137 -8.85603
2 2.78032 -7.79135 9.077
2 4.06129 5.38838 11.0319
2 -2.78048 6.20588 -10.9142
1 -6.78929 0.54233 11.1589
2 -4.19406 -5.44811 -11.0652
1 2.84933 -6.19088 11.1318
2 6.73068 -0.737128 -11.0774
3 -5.51118 12.6379 -2.21784
2 -13.7891 1.49999 2.17612
2 -8.29676 -11.136 -2.26277
2 5.38645 -12.7819 2.16633
2 13.4465 -1.50869 -2.06608
2 6.88285 10.0984 4.53999
2 -5.44685 10.7701 -4.60144
2 -12.5204 0.785069 4.54308
2 -6.7224 -10.0024 -4.43499
2 5.55155 -11.3245 4.56189
2 12.3198 -0.622117 -4.43667
2 5.34247 9.38516 6.9231
2 -10.9036 -0.0629704 6.68277
2 -5.30971 -9.4345 -6.55453
2 5.62853 -9.59905 6.69429
2 10.7698 -0.264967 -6.52302
2 3.92017 8.51238 8.96665
2 -5.39666 7.71268 -8.80604
2 -9.58424 -0.815231 8.95169
2 -3.92658 -8.6788 -8.99477
2 5.49493 -7.89689 8.88846
2 9.78016 0.7912 -8.79926
2 2.59641 7.70594 11.127
1 -6.50753 5.41268 -8.50104
2 -8.33488 -1.68904 11.2424
2 -2.64648 -7.66625 -11.2256
2 8.15213 1.55579 -11.0781
1 19.1501 -0.145358 -0.0212363
2 9.2446 16.4387 0.137302
3 -9.5124 16.4151 -0.0175234
2 -18.9533 0.0488599 0.00936037
2 -9.52379 -16.3329 0.0553673
2 9.66093 -16.5114 0.0324016
2 9.67702 -5.73671 15.461
2 -0.131209 10.8466 15.3873
2 -9.58189 -5.34358 15.5443
2 -0.104772 -10.9388 -15.3895
2 9.52662 5.59789 -15.6043
2 -9.4238 5.71651 -15.2812
2 17.7687 2.09998 -0.0907014
2 17.7581 -0.781536 2.1878
2 17.662 0.658977 -2.33496
2 6.6466 16.5172 0.164711
2 8.04873 15.999 2.24711
2 9.40466 14.844 -2.17223
2 -11.0524 14.2692 -0.183926
2 -8.13957 15.9183 2.25583
2 -9.59114 14.9412 -2.1787
2 -17.5691 -2.51145 0.00276222
2 -17.7004 -0.741278 2.23841
2 -17.4349 0.723711 -2.2144
2 -6.79195 -16.6126 -0.108256
2 -9.59948 -14.8767 2.10342
2 -8.02677 -15.7437 -2.17437
2 10.949 -14.1755 0.332482
2 9.62166 -14.7392 2.38344
2 7.80875 -15.9966 -2.19126
2 8.09962 -3.30648 15.5449
2 6.73598 -5.46819 15.4921
2 -1.47918 8.31298 15.5358
2 -1.41325 -8.58323 -15.4483
2 6.82094 5.51197 -15.4865
2 16.3302 4.77596 0.0258709
2 16.2492 -1.54296 4.25419
2 16.3599 1.45475 -4.54572
2 3.86103 16.3794 0.0850411
2 6.82339 15.1271 4.49523
2 9.30309 13.3403 -4.43226
2 -12.226 11.7304 0.0265985
2 -6.86408 15.1788 4.52759
2 -9.60777 13.3518 -4.4375
1 -16.186 -4.78486 0.335632
1 -16.337 -1.3104 4.51006
2 -16.1979 1.63012 -4.30298
3 -4.25416 -16.3241 0.0422172
2 -8.11367 -12.7409 2.41757
2 -6.58209 -14.8144 -4.503
2 12.1906 -11.8148 -0.0599324
3 6.61618 -15.0971 -4.30324
2 6.8928 -0.904536 15.4862
2 4.1362 -5.43954 15.7122
2 -2.75738 6.19695 15.7183
2 2.59332 -6.29743 -15.5666
2 4.12681 5.37048 -15.5375
2 14.9283 6.7888 -0.00669005
2 14.9458 2.39285 -6.7775
2 1.35611 16.6129 -0.181953
2 5.46654 13.976 6.63479
2 9.46393 11.7479 -6.5419
2 -13.5641 9.33596 -0.0659348
2 -9.45112 11.8632 -6.71268
2 -15.0828 -7.17772 0.289145
2 -14.8947 -2.34977 6.75901
2 -14.9006 2.51015 -6.69968
3 -5.55461 -14.0296 -6.73747
2 13.6246 -9.57139 -0.191551
2 9.57201 -11.7742 6.43412
2 5.66306 -14.4497 -6.577
2 5.33763 1.36994 15.3992
2 -4.22382 3.5989 15.7174
2 4.0357 -3.96706 -15.4797
2 -3.97711 -3.99047 -15.2564
2 1.31593 5.5126 -15.3762
2 13.641 -3.14753 8.78461
3 13.7657 3.17321 -8.85331
2 -1.38909 16.4734 -0.0951303
2 9.59143 10.1262 -8.83805
2 -14.9544 6.96801 0.0342507
2 -4.09699 13.4329 8.65269
2 -9.53062 10.3408 -8.84981
2 -13.7701 -9.50738 0.0662111
1 -13.6664 -3.27383 9.09317
2 -13.3752 3.2606 -8.8431
2 1.20982 -16.5485 -0.0728768
2 -4.30839 -13.2914 -8.84391
2 9.50576 -10.0347 8.94995
1 4.17044 -13.3633 -8.94014
3 4.10732 3.86445 15.5841
2 -1.42925 -5.30049 15.6386
2 5.40452 -1.61982 -15.5457
2 -5.29304 -1.52914 -15.3201
1 -1.51572 5.40357 -15.4906
2 12.014 11.5668 0.0408378
2 12.2679 -4.07353 11.3509
2 12.431 3.95892 -11.0589
2 -4.13579 16.5908 0.0904938
2 2.70559 12.2153 11.1497
2 9.6122 8.61393 -11.0238
2 -16.388 4.55128 -0.253143
2 -2.82065 12.5573 11.0766
2 -9.25848 8.74575 -11.0893
2 -12.1501 -11.9465 -0.0363598
2 -12.243 -4.14815 11.2311
2 4.0039 -16.6022 0.0208146
1 -9.41408 -8.68861 11.1286
2 -2.59964 -12.712 -11.1037
2 16.347 -4.86294 -0.0802232
1 9.52036 -8.66545 11.1247
2 2.79609 -12.5831 -11.2237
1 2.57443 6.21401 15.5952
2 -4.03568 -5.2713 15.5968
2 -6.69177 -0.918782 15.5068
2 6.83866 0.667228 -15.4034
2 -6.60332 0.85505 -15.5725
2 -4.01911 5.34694 -15.5407
2 10.6481 13.9529 0.0290433
2 10.8169 -4.90487 13.2876
2 10.8797 4.54015 -13.4219
2 -6.74802 16.563 -0.109187
2 9.60241 6.90556 -13.264
2 -17.6197 2.20801 0.199513
2 -9.43691 7.06157 -13.1993
2 -10.9283 -14.0922 -0.040813
2 -10.8305 -4.532 13.367
2 -10.7367 4.77923 -13.2496
2 6.64687 -16.7351 -0.00186709
2 -9.48296 -6.87707 13.4516
2 -1.39005 -12.0004 -13.2328
2 17.5335 -2.55191 -0.229179
2 9.37079 -7.07866 13.1388
2 1.42616 -11.7583 -13.2601
2 1.30274 8.45684 15.4275
3 -6.95148 -5.24748 15.6496
2 -8.09197 -3.02821 15.5702
2 8.28364 3.10387 -15.52
2 -8.07476 3.12018 -15.5164
2 -6.60732 5.60535 -15.5158
2 16.2798 3.05261 -2.35407
2 5.32998 15.7179 2.33979
2 -10.9686 12.5938 -2.36775
1 -16.3787 -3.06657 2.34912
2 -5.37243 -15.5186 -2.39831
2 5.33333 -3.13682 15.5371
3 -0.00490629 -6.24225 -15.4395
2 14.9227 3.86179 -4.43088
2 3.98781 14.7819 4.44289
2 -10.923 10.9845 -4.60372
2 -14.9957 -4.15534 4.63941
2 10.9493 -10.7407 4.18459
2 2.67181 -3.08053 15.6202
2 13.4939 4.7436 -6.59631
2 2.74193 13.9852 6.52359
2 -10.686 9.30312 -6.57359
3 -13.5227 -4.82895 6.73647
2 -2.73979 -14.0961 -6.73074
2 11.0664 -9.18046 6.5848
2 -0.129957 -3.07434 15.6552
2 12.36 5.43196 -8.84963
3 -10.7368 7.92349 -8.74668
2 -12.268 -5.49753 9.02463
2 -1.44712 -13.4744 -8.77361
2 10.7571 -7.83026 8.66336
3 -2.71142 -3.05019 15.5581
3 11.0174 6.16485 -11.1009
1 0.0429823 12.3387 10.8784
3 -10.7707 6.38935 -11.0384
2 -10.7035 -6.37699 11.1632
2 0.0512289 -12.5998 -11.1266
2 11.0105 -6.3809 11.0241
3 -5.56329 3.20032 -15.4781
2 16.2416 1.62494 2.19562
3 6.69743 14.816 -2.27855
2 -9.51053 13.3961 2.16588
3 -16.262 -1.65146 -2.1822
2 9.57584 -13.5216 -2.01055
2 14.9229 0.97113 4.4249
2 6.74743 13.4065 -4.41587
2 -8.20863 12.6423 4.47977
2 -14.7456 -0.661744 -4.09952
2 -6.82687 -13.3297 4.72186
2 8.10545 -12.7587 -4.45426
2 13.525 0.0515834 6.52705
2 6.69761 11.9181 -6.66396
1 -12.397 -2.26497 -6.70103
2 6.82494 -11.8884 -6.78133
2 12.3544 -0.726419 8.82461
2 6.89968 9.99102 -8.87745
2 -5.48994 11.0011 8.74965
2 -6.3953 -10.0989 9.07302
2 5.41318 -11.094 -8.86239
1 10.8475 -1.61547 11.2062
3 6.70228 8.58005 -11.1195
2 -4.15939 10.2188 11.0473
2 -6.69637 -8.60716 11.1738
2 4.2075 -10.1778 -11.0592
2 9.41535 -2.4599 13.3181
2 6.89342 7.02212 -13.258
2 -2.81276 9.38696 13.3726
3 -9.27685 2.39043 -13.4012
2 -6.65832 -6.91575 13.3693
2 2.70439 -9.50419 -13.1852
2 14.9897 5.50873 -2.236
2 2.62381 15.4732 2.22748
2 -12.314 10.3432 -2.31818
2 -15.0546 -5.57167 2.42147
2 -2.81572 -15.8367 -2.21798
3 12.3169 -10.2929 2.07055
1 4.13216 -0.873055 15.5177
2 1.30879 -3.88923 -15.3829
2 13.6259 6.19843 -4.44111
2 1.28669 14.828 4.48773
2 -12.4941 8.47475 -4.48636
2 -13.4133 -6.32464 4.53054
2 -1.2854 -14.7228 -4.40571
2 1.39417 -0.841452 15.65
2 -0.152907 -1.59652 -15.3957
2 12.3197 7.02942 -6.7872
2 0.0766919 14.0576 6.61064
2 -12.1341 7.15525 -6.62876
1 -12.122 -7.03887 6.76547
2 -0.105608 -14.079 -6.65967
2 12.2031 -6.77733 6.60822
2 -1.35821 -0.855801 15.4782
2 10.919 7.78649 -8.7738
2 -1.38434 13.3 8.81572
2 -12.0124 5.58835 -8.75914
2 -10.7739 -7.84721 8.84556
1 1.41185 -13.2732 -8.85553
2 12.128 -5.36898 8.86581
3 -3.77924 -0.674831 15.3182
2 -3.97555 1.01631 -15.1591
2 14.9666 3.99162 2.0908
2 4.09293 14.8542 -2.20651
1 -10.9239 10.6884 2.18179
2 -14.8192 -3.93644 -2.11815
2 -4.09421 -14.784 2.25625
3 11.0062 -11.0795 -2.20978
1 13.8725 4.55599 6.75992
2 4.14356 13.2548 -4.29292
2 -9.52767 10.0436 4.45745
2 -13.6424 -2.86813 -4.3828
3 -4.1657 -13.2638 4.58001
1 9.51536 -10.4682 -4.49348
2 4.09948 11.7951 -6.67057
2 -8.08495 9.35539 6.64659
2 -4.23255 -11.668 6.89157
2 8.03669 -9.35442 -6.88572
1 10.9564 1.53275 8.82107
2 3.96278 10.0997 -8.75863
3 -6.91293 8.6146 8.90598
1 -11.4385 -0.657471 -8.87396
1 -3.82847 -9.94978 8.89483
1 9.43226 0.701611 11.1265
2 4.12107 8.78242 -11.1668
2 -5.54602 7.64345 11.0114