3518
 Atoms. Timestep: 6000
2 -0.454084 0.0479941 0.280569
2 2.54285 0.119586 0.289353
1 1.10137 2.2393 0.230235
2 -1.43359 2.34943 -0.033852
2 -3.34385 0.450028 0.103486
2 1.2122 -2.34798 0.201611
2 1.20241 -0.701384 2.42844
3 -0.13379 1.41985 2.46943
2 -0.372935 -1.58687 -1.79853
2 0.824566 0.750794 -1.97373
2 -1.7111 0.696335 -2.13768
2 5.46495 -0.0948214 0.0363279
2 2.87903 4.75971 0.115159
2 -2.90013 -4.69562 0.0371201
2 2.71142 -1.62702 4.51889
2 -0.00789031 2.96622 4.53805
2 -2.94212 -1.5973 4.41106
2 2.49716 1.61244 -4.24001
2 -2.7298 1.72554 -4.59322
2 4.11431 2.46981 0.387461
2 3.94904 -0.869613 2.29524
2 -0.104171 4.74579 0.00664854
2 1.20245 3.82066 2.32473
2 2.54326 2.97733 -1.92378
2 -1.36947 3.81042 2.1884
2 -2.87394 3.18428 -2.31854
2 -4.23271 -2.05244 0.117164
1 -1.9761 -1.02532 1.96268
2 -4.46716 0.935268 -1.99736
2 -0.219413 -4.78978 0.120804
2 -2.8647 -3.37893 2.20619
2 -1.53327 -3.78526 -2.16231
2 3.97901 -2.26308 0.20892
2 2.63438 -3.29791 2.36941
2 0.981679 -3.85138 -2.30058
1 1.30825 0.707662 4.50179
2 -0.183891 -1.84721 4.34098
2 -1.46566 0.752876 4.53437
2 1.09741 -0.728166 -4.43323
2 -1.40363 -0.577706 -4.28389
3 0.00011494 1.70202 -4.12046
3 2.57981 1.63121 2.33791
2 -0.199008 3.14918 -2.12366
2 -2.65128 1.53851 2.28118
2 -0.171898 -3.1977 2.24047
2 2.58069 -1.67008 -1.94427
2 8.11083 0.140146 0.146593
2 4.33502 7.05944 0.118272
2 -4.03362 6.99907 -0.0936495
2 -8.43421 0.266145 -0.0651618
2 4.16245 -2.35499 6.74654
2 -4.29153 -2.34689 6.85671
2 3.6306 2.21092 -6.46031
2 -4.32859 2.26624 -6.61209
2 6.69234 2.34311 0.0431524
2 6.76047 -0.750179 2.31428
2 6.9822 0.69302 -2.25393
2 1.40022 7.0689 -0.0671791
2 2.80924 6.35455 2.3873
2 3.92434 5.48248 -2.13717
2 -5.56987 4.97463 -0.0967854
2 -2.60682 6.24063 2.13878
1 -4.1274 5.3208 -2.09191
2 -7.12842 -2.1656 0.0258289
2 -6.82707 -0.703822 2.16827
2 -7.0341 0.813913 -2.13611
2 -1.62237 -6.94474 -0.027104
2 -5.79376 -7.95639 2.16713
3 -2.83679 -6.17342 -2.21522
1 3.87106 -6.41686 -0.212106
2 4.14016 -5.57507 2.1589
2 2.27395 -5.96329 -2.1004
2 2.67787 -0.0800785 6.74579
2 1.45509 -2.6271 6.60444
2 -1.47292 2.04935 6.91481
2 1.0561 -2.08957 -6.60092
2 -1.77077 -2.33603 -6.61579
2 5.62212 4.71132 0.0792174
2 5.47782 -1.73136 4.56742
2 5.38521 1.54623 -4.36645
2 -1.32885 7.17807 0.050997
2 1.42274 5.3907 4.46777
2 3.89762 3.85171 -4.25077
2 -6.98153 2.53146 -0.358754
2 -1.23265 5.51805 4.48438
2 -4.16918 3.99519 -4.28724
2 -5.56472 -4.67452 0.210999
2 -5.43972 -1.57538 4.49816
2 -5.73836 1.73187 -4.22655
2 1.19297 -7.15214 0.197339
2 -4.03844 -3.9628 4.55943
2 -1.50565 -5.45168 -4.34474
2 6.77437 -2.44614 0.0251673
2 1.14546 -5.20042 -4.4614
2 1.11621 2.16553 6.74347
2 -1.60548 -2.45631 6.77424
2 -2.89884 -0.138269 6.56147
2 5.14614 3.10725 -2.08963
2 0.130965 6.22541 2.29728
2 -5.40473 -3.18763 2.45052
2 5.4053 -3.02252 2.33623
2 -0.0281964 -0.316538 6.68538
2 -0.309231 0.205615 -6.44667
2 -4.1196 3.89123 1.70942
2 -5.62658 -1.42672 -2.09029
2 -1.5746 -5.62973 2.20497
2 4.00044 0.647901 4.46426
2 1.23312 3.94853 -4.06793
2 -2.65283 3.18172 4.30192
2 -4.23953 -0.593615 -4.21988
2 -1.37676 -4.11902 4.61853
2 2.51425 -2.93755 -4.58499
2 4.05758 3.99057 2.43373
2 -1.49022 5.44262 -2.05952
2 -5.48884 1.66535 1.91873
2 -4.23727 -3.78316 -1.9873
2 1.29535 -5.42874 2.21609
1 5.11079 -1.61067 -2.13693
2 2.81265 3.1759 4.59647
3 -1.40113 3.92748 -4.3091
2 -4.12561 0.71129 4.27799
3 -2.92 -2.83806 -4.38962
2 1.29718 -4.14282 4.37866
2 3.7719 -0.636524 -4.2768
2 10.7152 -0.0544965 -0.027175
2 5.4312 9.62949 0.230383
2 -5.23487 9.48137 -0.0196227
3 -5.37274 -9.42148 0.0610505
2 5.48765 -9.34451 -0.0215872
2 5.42083 -3.23787 9.11899
2 0.261633 6.32296 9.01687
1 -5.49556 -3.26616 9.01745
2 -0.123335 -6.20979 -8.7575
2 5.23796 3.06489 -8.72083
2 -5.62295 2.87096 -8.9245
2 9.36863 2.41157 0.0384248
2 9.54822 -0.815542 2.37032
2 9.54939 0.880561 -2.10902
2 2.66209 9.42548 0.126096
1 4.31057 8.72017 2.33418
3 5.62536 8.11743 -2.04256
2 -6.76754 7.25496 -0.165717
2 -3.82904 8.75403 2.18349
2 -5.2507 7.8493 -2.31766
2 -10.0297 -1.97414 0.0991131
2 -9.88721 0.860122 -2.28872
2 -2.9296 -9.48601 0.0496101
2 -4.29093 -8.23634 -2.0015
2 6.55082 -6.66499 -0.0118363
2 5.52788 -7.76879 2.43663
1 4.01557 -8.24223 -1.99354
2 4.36096 -0.880892 8.98383
2 2.91026 -3.32155 8.88433
2 1.26806 -3.83003 -8.61544
2 -1.48482 -3.77148 -8.63249
2 2.59371 3.06394 -8.5983
2 8.28554 4.74056 0.332799
3 8.24199 -1.54278 4.53116
2 8.15342 1.64254 -4.456
2 2.79777 7.754 4.62845
2 5.3627 6.34414 -4.09562
2 -8.18677 4.83583 -0.0214154
2 -2.48696 8.00945 4.45986
1 -5.56595 6.28326 -4.2575
2 -8.44284 -4.60328 0.363474
2 -8.47083 1.61336 -4.50252
2 -0.154901 -9.3251 0.0591495
2 -5.64906 -6.16264 4.45151
2 -2.77575 -7.89493 -4.3291
2 8.20376 -4.69738 -0.0145303
2 5.50489 -6.27675 4.63026
2 2.60587 -7.53452 -4.27506
2 2.71879 1.60439 8.90606
2 0.0757477 -3.29137 9.05372
2 -3.14546 1.38361 8.97047
2 2.58664 -1.51187 -8.97215
2 -0.187316 2.99415 -8.61042
2 6.87711 7.13155 0.182304
2 7.05764 -2.35919 6.92692
2 6.57631 2.42744 -6.57293
2 -2.52822 9.50286 -0.0552441
2 1.33966 7.10931 6.65487
2 -1.28109 6.92028 6.90217
1 -5.39091 4.58414 -6.67151
2 -7.08597 2.28834 -6.56719
2 2.59003 -9.40937 0.243497
2 -5.51347 -4.97558 6.76616
2 -1.49088 -6.91721 -6.48809
2 5.67235 -4.70517 6.80593
2 1.32179 -6.67161 -6.62558
2 1.07987 3.76178 8.9473
2 -2.88427 -3.15989 9.07668
3 -4.28255 -0.940417 8.87298
2 3.77121 0.833229 -8.75185
2 -4.56176 0.68262 -8.7156
2 -2.98436 2.8953 -8.64766
2 7.89816 3.23461 -2.08783
3 1.44745 8.4746 2.29809
2 -7.10634 5.65051 -2.33241
2 -8.2575 -3.05712 2.51823
2 -1.64895 -8.61556 -2.18491
2 6.98909 -5.37114 2.36566
2 1.47136 -0.829177 8.92584
2 -0.232971 -1.46857 -8.8608
2 6.71711 3.81097 -4.26903
2 0.0869444 7.84802 4.5503
2 -6.85883 4.10096 -4.41704
2 -6.78069 -3.86988 4.56482
2 -0.0198335 -7.8653 -4.28112
2 6.90323 -3.80407 4.59233
2 -1.44716 -0.86212 8.99345
2 -1.64957 0.672204 -8.56129
2 7.9955 1.51989 2.43103
2 2.97568 8.01978 -2.24306
2 -5.29929 6.49968 2.24452
2 5.07673 -5.80416 -2.17549
2 6.65416 0.587763 4.57843
2 2.64511 6.32558 -4.35092
2 -4.11446 5.36778 4.36401
2 -6.93516 -0.645916 -4.23008
2 -2.8707 -6.44489 4.33025
2 5.58899 -0.0304854 6.74394
2 2.53327 4.64874 -6.38007
2 -2.66438 4.45357 6.5688
2 -5.9033 0.0468564 -6.71669
2 -2.83936 -4.9189 6.86937
2 2.67819 -4.50095 -6.44028
2 6.67585 5.76552 -1.98852
2 -1.14627 8.83345 2.12716
2 -8.27011 3.26002 -2.28861
2 -7.08446 -5.67609 2.27696
2 1.18865 -8.53052 -2.11246
2 8.19277 -2.94648 2.28041
2 1.17969 0.73949 -8.85933
2 6.71024 4.00065 2.27349
2 0.217826 7.75057 -2.23694
2 -6.94329 3.88667 2.12861
2 -7.04327 -3.92845 -1.97548
2 -0.137891 -7.86764 2.31382
2 6.89676 -3.89854 -2.2004
3 5.51633 2.81179 4.33365
2 -0.26847 6.30361 -4.41738
2 -5.44154 2.95132 4.25844
2 -5.63156 -2.99763 -4.12744
2 -0.256893 -6.35913 4.57618
2 5.34926 -2.95485 -4.34871
2 4.26056 2.14149 6.58774
2 -0.0533364 4.6758 -6.43829
2 -4.18381 2.37324 6.60847
2 -4.30726 -2.31195 -6.43734
2 -0.233557 -4.78651 6.80965
2 5.39568 6.44028 2.28528
2 -2.43282 8.07238 -2.41279
2 -8.07579 1.66052 2.14751
2 2.65175 -7.84554 2.1332
1 8.06923 -1.58375 -2.10124
2 4.13844 5.4618 4.75586
2 -2.84425 6.16061 -4.30513
2 -6.87423 0.54517 4.43126
2 -4.29722 -5.22392 -4.14274
2 2.65859 -6.37414 4.53001
2 6.70831 -0.724227 -4.43109
2 2.48913 4.5338 6.89046
2 -2.67833 4.56657 -6.50798
2 -5.52733 -0.00621285 6.80422
2 -2.86751 -4.5996 -6.54622
1 3.1963 -4.47533 6.05512
2 5.2549 -0.0753214 -6.6707
2 13.5745 -0.0240642 -0.0238698
2 6.68021 12.1357 0.0411704
2 -6.46542 11.6356 0.0597432
2 -14.5387 0.606653 -0.337355
2 -6.64831 -11.6135 -0.0336769
2 6.80765 -11.7582 -0.156907
2 6.80057 -4.01769 11.3357
3 0.0740566 7.73427 11.068
2 -6.80152 -4.12895 11.2148
2 -0.0577847 -7.78939 -10.8245
3 6.3824 4.05327 -10.8922
2 -6.97162 3.54574 -11.0388
2 12.0377 2.32983 -0.121907
2 12.2597 -0.771652 2.19838
3 12.1443 0.773096 -2.12067
1 4.09963 11.9635 0.0785548
2 5.52683 11.2999 2.29117
2 6.94948 10.3078 -2.16969
2 -5.12323 10.9278 2.25186
2 -6.48305 10.266 -2.33959
2 -12.0166 -1.11554 1.88079
2 -12.6212 1.10557 -2.26111
2 -4.08074 -11.7425 0.201039
2 -6.87004 -10.3399 2.20692
1 8.1532 -9.48613 -0.00598784
2 7.03031 -10.316 2.184
2 5.36961 -10.7792 -2.14347
2 5.51192 -1.69095 11.187
2 4.20582 -4.03513 11.5976
2 -1.39656 5.22214 11.0034
2 1.27614 -5.54155 -11.1036
1 -1.28128 -5.4127 -11.1395
2 3.76316 3.79027 -10.8689
1 10.8946 4.66845 0.105903
2 10.9183 -1.67214 4.63621
2 10.8645 1.59446 -4.28339
2 1.57969 11.7975 -0.134835
1 4.40243 10.2742 4.47817
2 6.56897 8.75529 -4.39781
2 -9.3911 7.05022 -0.179542
2 -3.81412 10.1054 4.52066
3 -6.63188 8.66209 -4.46468
2 -10.9829 -4.68834 0.0184511
2 -10.8372 -1.80882 4.30486
2 -10.9679 1.78384 -4.36664
2 -1.2803 -11.7531 0.112512
3 -6.92596 -8.6737 4.37159
2 -2.66259 -12.4568 -4.21479
2 9.37154 -7.13237 0.000614709
2 6.98941 -8.84007 4.58642
3 4.13536 -9.76481 -4.35688
2 4.08388 0.914021 11.237
2 1.42083 -4.01194 11.3853
2 -2.72837 2.92923 11.001
2 2.71043 -3.14942 -11.2203
3 -2.74133 -3.19899 -10.9991
2 0.991411 3.78841 -10.6815
2 9.67886 7.37148 0.345367
3 9.6075 -2.40425 6.78265
2 -1.04818 11.8619 -0.0305863
2 2.93375 9.3359 6.60862
2 6.55637 7.0082 -6.44174
2 -11.2485 3.42977 -2.24709
2 -2.58235 9.37153 6.75494
3 -6.70987 7.0292 -6.6202
2 -9.66801 -6.89838 0.210829
2 -9.24011 -2.45547 6.63787
3 -9.74656 2.40295 -6.66526
2 1.33002 -11.7356 0.0832781
2 -6.95092 -7.37884 6.85124
2 -2.9852 -9.24698 -6.50799
2 11.0138 -4.61287 -0.0334184
2 6.9748 -7.15127 6.67946
2 2.6245 -9.26883 -6.53191
2 2.41214 2.87561 11.2517
2 -1.62472 -3.88785 11.0893
1 -4.16751 0.712483 11.2803
2 3.97862 -0.807523 -11.186
2 -4.03512 -0.962018 -11.1134
2 -1.61178 3.68892 -10.9713
2 8.03447 9.68122 0.124081
2 8.26666 -3.36421 8.93852
2 7.85729 3.26277 -8.81919
2 -3.7298 11.7864 -0.0624673
2 1.648 8.5199 9.01606
2 6.44487 5.55192 -8.74322
2 -11.4927 0.382282 -0.152627
2 -1.25149 8.5472 8.98425
2 -8.09602 -3.21297 9.01457
2 -8.24649 2.96541 -8.84241
2 3.93053 -11.594 0.0613964
2 -6.80812 -5.74045 9.00639
2 6.8298 -5.68633 9.13377
2 1.30189 -8.44444 -8.7064
2 1.57406 5.44703 11.0789
2 -5.35109 -1.54137 11.1802
2 5.26015 1.74636 -11.0295
3 -5.74599 1.10422 -11.131
2 -4.37637 3.90508 -11.1068
2 2.82977 11.0218 2.2878
2 -8.0675 7.96627 -2.22982
2 -10.7664 -3.44223 2.30623
2 8.30745 -7.84758 2.34328
2 2.85417 -1.66954 11.1208
2 -0.0868678 -3.16767 -11.131
2 9.39473 4.11506 -4.17858
2 1.56222 10.244 4.53769
2 -8.08459 6.19789 -4.51806
2 -9.54076 -4.02822 4.46789
3 -1.37816 -10.0345 -4.43491
2 8.3346 -6.354 4.48507
2 -0.0553267 -1.75229 11.124
2 7.989 4.75496 -6.52972
2 0.16396 9.50538 6.94355
2 -8.22263 4.67836 -6.82751
2 -8.2153 -4.78881 6.64339
2 -0.15393 -9.02754 -6.6111
2 8.34424 -4.76336 6.69684
2 -2.79116 -1.49237 11.1972
2 -3.15666 1.30677 -10.9582
2 10.8742 1.48647 2.22896
2 4.13116 10.3197 -2.08671
2 -6.7416 8.68316 2.19977
2 -11.0437 -1.36953 -2.19507
2 -4.17385 -10.1905 2.2748
2 6.86953 -8.50887 -2.24053
2 9.59122 0.68704 4.51364
2 -5.31112 7.88289 4.44509
2 -9.75724 -0.727984 -4.41569
2 -4.19173 -8.54772 4.45938
2 5.39146 -7.48412 -4.26668
2 8.31062 -0.0291644 6.84582
2 3.96637 7.21103 -6.3572
2 -3.87586 6.85859 6.57809
3 -8.37632 -0.073095 -6.68676
2 -4.17132 -7.20174 6.70044
2 3.98042 -6.89171 -6.41791
2 6.98355 -0.720823 9.1084
2 3.83754 5.55252 -8.60466
2 -4.06588 -5.68051 8.92496
2 2.69728 -6.15557 -8.77034
2 9.27145 5.74091 -1.94462
2 0.206224 11.0291 2.27299
3 -9.77832 5.63144 -2.19662
2 -0.0713555 -10.751 -2.28557
2 9.63114 -5.45088 2.08276
2 1.14763 -0.883143 -11.0954
2 7.98317 6.42051 -4.2336
2 -1.19797 10.3795 4.65445
2 -9.69145 3.95871 -4.47716
2 -8.3401 -6.41585 4.57216
2 9.4565 -3.81733 4.64632
2 1.58471 10.16 -2.24412
2 -8.05785 6.2737 2.18739
2 -9.60816 -3.7525 -1.96411
2 -1.49317 -10.1116 2.2515
2 8.09726 3.0675 4.56013
3 1.40927 8.65333 -4.42769
2 -6.80817 5.52501 4.42495
1 -8.46559 -2.94409 -4.06988
2 -1.48473 -8.75168 4.49701
2 6.61574 -5.27986 -4.39532
3 6.93807 2.25053 6.89519
2 1.36966 7.1303 -6.63558
2 -5.27499 4.64367 6.55486
2 -7.03979 -2.25633 -6.49981
2 5.25086 -4.47287 -6.54473
2 5.45024 1.626 8.96153
2 1.1038 5.42614 -8.61304
2 -4.03643 3.79055 8.9324
2 -5.68866 -1.60599 -8.9586
3 -1.3844 -5.47993 9.11642
2 3.87505 -3.84874 -8.78522
2 -8.44009 -8.00069 2.28638
2 2.61332 -10.8637 -2.11205
2 10.8147 -3.19356 2.30456
1 -0.18198 2.56225 10.9317
2 2.62147 1.51342 -11.046
2 8.27245 6.32409 2.47252
1 -0.891396 10.1351 -2.02851
2 -9.71388 3.95917 1.95177
2 -8.297 -6.08146 -1.9865
2 1.21014 -10.1824 2.3935
2 9.50863 -3.67233 -2.16578
2 6.82455 5.32956 4.65081
1 -1.03867 8.98666 -4.39875
2 -8.12641 3.16817 4.34501
2 -6.96683 -5.3007 -4.19768
2 1.47424 -8.70176 4.45862
2 5.37092 4.5059 6.84663
2 -1.28816 7.08412 -6.7719
2 -6.85594 2.23047 6.49434
2 -5.53896 -4.63208 -6.61603
2 1.28679 -7.11755 6.68622
2 6.64011 -2.33397 -6.58436
2 3.94486 3.9701 9.13815
2 -1.56677 5.29474 -8.82193
3 -4.24572 -3.82189 -8.76708
2 1.32575 -5.7053 9.0189
2 5.42409 -1.53025 -8.81181
2 6.85316 8.73516 2.45763
2 -3.9344 10.306 -2.29817
2 -10.6838 1.37237 2.17231
2 -6.97966 -8.37593 -1.90858
2 4.18776 -10.1281 2.40372
2 10.7797 -1.36316 -2.36788
2 5.59774 7.84058 4.61129
2 -3.80943 8.65636 -4.54982
2 -9.50388 0.629154 4.44448
1 -5.68971 -7.77682 -4.08341
3 4.16352 -8.66266 4.5673
2 9.50672 -0.802625 -4.47077
2 4.12666 7.00907 6.83943
2 -3.98018 6.97048 -6.77103
3 -8.15671 -0.0456406 6.74117
1 -4.19962 -6.85216 -6.33104
2 3.97307 -7.03015 6.76446
2 8.12303 0.0889694 -6.50327
2 -4.29457 5.40584 -8.94884
2 -6.82378 -1.00586 8.93285
2 -2.71868 -5.99652 -8.71253
2 4.02915 -5.71168 8.99431
2 16.3129 -0.0371936 0.107399
1 8.39596 14.1568 0.203051
2 -7.78902 14.1879 0.0952576
2 -7.97835 -13.8881 0.000664206
2 8.20825 -14.2047 -0.372268
2 -8.09599 -4.7381 13.3803
2 0.105955 -9.17035 -13.1861
2 7.5295 4.77833 -13.0558
2 -8.28579 4.37419 -13.3642
2 14.6939 2.2154 0.199598
2 15.0511 -0.88742 2.23993
2 5.55422 14.4871 0.0307086
2 6.94074 13.4413 2.3818
2 8.34037 12.7178 -2.23083
2 -9.15091 11.9743 -0.0773852
2 -6.21971 13.2635 2.28076
2 -7.67303 12.6272 -2.1554
3 -15.3032 -2.61855 0.0222585
2 -14.64 -0.85487 1.78513
2 -5.36517 -14.1518 -0.137825
2 -6.64733 -12.9116 -2.22935
2 9.48342 -11.9531 -0.450871
2 8.23657 -12.7831 2.02604
2 6.77543 -2.54309 13.5382
2 1.38174 -6.93419 -13.4232
2 -1.26202 -6.89199 -13.1585
2 4.93034 4.91887 -13.0658
2 13.6453 4.57366 0.189602
2 13.5443 -1.6002 4.52477
2 13.6252 1.67073 -4.19896
2 2.86218 14.4 -0.158327
2 5.4226 12.5316 4.5267
2 8.21016 11.0886 -4.2878
2 -9.99719 9.55876 0.129257
1 -3.01799 12.4283 4.76829
2 -13.6963 -4.74043 -0.15571
2 -13.6529 -1.54811 4.18405
2 -13.8607 1.68336 -4.49523
2 -2.68957 -14.1416 0.123635
2 -8.34622 -11.0148 4.53933
1 -5.0962 -12.619 -4.44525
2 10.8481 -9.51646 -0.0273175
2 5.39211 -12.265 -4.25684
2 5.44032 0.0703094 13.4404
2 2.68481 -4.73817 13.499
2 -2.49486 4.72983 13.259
2 2.68794 -4.74437 -13.2618
1 -2.52149 -4.55794 -13.2638
2 2.4214 4.75325 -13.029
2 12.2704 7.17712 0.12871
2 12.3762 -2.27256 6.90043
2 11.9344 2.46065 -6.44377
2 0.207094 14.4008 -0.294851
2 4.18184 11.7075 6.64795
2 7.95272 9.66942 -6.47216
3 -11.6919 7.66478 0.410695
2 -7.66584 9.51582 -6.90264
2 -12.3128 -7.12079 -0.0875439
2 -12.2926 -2.46861 6.47247
3 -12.3327 2.49649 -6.58058
3 0.120077 -13.9346 0.0588014
2 -8.25755 -9.51518 6.73385
2 -4.13181 -11.6423 -6.42257
2 12.3382 -6.98464 -0.013436
3 8.04968 -9.59558 6.86202
2 4.02462 -11.4963 -6.73015
2 4.17416 2.42093 13.5002
2 -0.0727463 -4.93025 13.3633
2 -4.20383 2.30705 13.4267
2 4.01458 -2.38576 -13.2279
3 -4.21914 -2.54892 -13.2722
2 -0.213259 4.52782 -12.8339
2 10.6244 3.12484 -8.71741
2 -2.47307 14.1622 -0.138102
2 2.86548 10.9166 8.95368
2 7.79859 7.8997 -8.55569
2 -8.22353 7.68478 -8.74091
2 -10.9314 -9.40225 0.303572
2 -11.0439 -3.04396 8.80797
2 -11.0056 3.09372 -8.76329
2 -8.32104 -7.90808 8.96816
1 -2.76368 -10.4324 -8.8432
2 13.6658 -4.77755 -0.097515
1 8.08346 -8.06948 8.96026
2 2.24408 -10.994 -8.603
1 2.85819 4.74238 13.1924
2 -2.72358 -4.65357 13.3479
2 -5.61216 -0.173887 13.4139
1 5.21984 0.24021 -13.2287
2 -5.58075 -0.233524 -13.254
2 -2.81489 4.51151 -13.2699
2 9.55761 -4.19788 11.1667
2 9.18089 4.0818 -10.9794
2 -5.09892 14.0906 -0.113774
2 1.44789 10.0365 11.1747
2 7.90744 6.54183 -10.8583
2 -13.0118 2.88041 -0.294341
2 -1.15332 9.9458 11.1666
2 -8.1266 6.16719 -11.1721
1 -10.9113 -12.3284 1.68348
2 -9.47457 -3.97775 10.9937
2 -9.56622 3.70947 -11.2165
2 5.59288 -14.113 -0.109917
1 -1.45603 -10.1707 -11.1157
2 14.8405 -2.38607 0.0651966
2 8.1703 -6.55504 11.147
3 1.28846 -10.0877 -10.8498
2 -5.37949 -4.70084 13.4947
2 -6.93536 -2.36093 13.5112
2 6.42999 2.49061 -13.3372
2 -6.91609 2.07893 -13.3604
2 -5.47184 4.32784 -13.5043
2 13.4599 3.2813 -2.12039
2 4.16792 13.5314 2.1758
2 -9.09084 10.3335 -2.28525
2 -13.5346 -3.20761 1.90325
2 -4.04072 -13.2471 -2.13088
2 9.63818 -10.277 2.29966
3 4.09437 -2.45836 13.4263
2 12.0289 3.95946 -4.23094
1 -0.776783 13.2028 2.82451
2 -12.5051 -4.08155 4.36779
2 1.44457 -2.25351 13.3646
2 -1.43544 -2.35787 -13.1513
2 10.777 4.7716 -6.39746
2 1.41599 11.8425 6.6921
2 -9.45814 6.90109 -6.56417
1 -10.9281 -4.85622 6.4426
2 -1.52519 -11.5845 -6.56175
3 9.66888 -7.07795 6.82463
2 -1.39825 -2.2483 13.2677
3 -2.84692 -0.160602 -13.3684
2 9.26088 5.65717 -8.59956
2 -9.66496 5.23406 -8.85499
2 -9.59958 -5.55934 8.72536
2 -0.346212 -10.8014 -8.87819
2 9.58009 -5.92825 8.98542
2 -4.20982 -2.43429 13.507
2 -4.14769 2.13991 -13.2468
2 13.4784 1.49443 2.34166
2 5.50555 12.7785 -2.24925
2 -8.06385 11.0239 2.26289
2 -14.0479 -1.25204 -2.14585
3 -5.44382 -12.6704 2.26646
2 8.20186 -11.2277 -2.54802
1 12.3298 0.883418 4.568
2 -6.66874 10.0749 4.43429
2 -12.3884 -0.732013 -4.38103
2 -5.47729 -11.0124 4.38395
2 6.64311 -10.014 -4.41383
2 11.0905 0.115063 6.88801
2 5.28949 9.69993 -6.26964
2 -5.25154 9.24803 6.71573
2 -11.1449 0.0642496 -6.51167
2 -5.36218 -9.5466 6.64201
2 5.32816 -9.36406 -6.59082
2 9.68566 -0.96307 9.00962
2 5.17205 7.95722 -8.45396
2 -3.95223 8.39123 9.00319
2 -9.54815 0.685482 -8.70717
2 -5.37137 -8.15859 8.82706
2 8.1144 -1.66001 11.3552
2 5.16771 6.44381 -10.875
2 -2.69035 7.54714 11.1301
2 -8.19424 1.24781 -11.0983
2 -5.47718 -6.39356 11.0043
2 2.60481 -7.83461 -10.9714
2 12.2906 5.65548 -2.08983
2 1.5537 13.4264 1.9947
1 -9.36694 8.71295 -4.47502
2 -12.4289 -5.63104 2.18996
2 10.9209 -8.03297 2.22269
2 2.77425 -0.0199198 13.4933
2 1.30813 -2.31832 -13.2866
2 10.8294 6.32574 -4.26998
2 -10.9958 6.55165 -4.38769
2 -0.0325027 -12.3693 -4.30189
3 0.00611038 -0.0632483 13.4234
2 -0.147065 -0.114398 -13.2124
2 9.46834 7.17603 -6.34835
2 -1.24883 11.6266 6.80338
2 -10.9584 4.74492 -6.56218
3 -9.53206 -7.24284 6.81709
1 1.02644 -11.4681 -6.49772
2 11.0431 -4.8405 6.72046
2 -2.76363 -0.0436576 13.4661
2 -1.5848 2.1207 -13.0015
2 12.0802 3.72613 2.11245
2 2.84954 12.7382 -2.20783
2 -9.20215 8.63025 2.31543
2 -12.515 -3.62189 -2.05885
2 -2.86297 -12.6903 2.38453
2 9.47862 -8.66042 -2.18374
2 10.9302 2.89296 4.51188
2 3.0058 10.8383 -4.54012
2 -11.0803 -3.01608 -4.32593
2 -2.93907 -11.1831 4.58203
2 8.15421 -7.73513 -4.31462
2 9.6723 2.2624 6.82054
2 2.57599 9.47016 -6.66477
2 -6.82852 6.95755 6.77269
2 -9.67694 -2.23093 -6.90628
2 -2.7562 -9.49757 6.75363
2 6.73713 -6.93194 -6.43663
2 8.23233 1.46871 9.19346
2 2.62663 7.95855 -8.66975
2 -5.53592 5.90951 8.81512
2 -8.37506 -1.60343 -9.03748
2 5.37925 -6.02014 -8.73784
1 6.7315 0.609329 11.3245
2 2.40962 6.09719 -10.6984
2 -3.96126 5.34061 10.8933
2 -7.0513 -0.973449 -11.1207
1 -2.89597 -6.31225 10.9906
3 3.86222 -5.50523 -10.998
2 10.9226 7.92364 -2.09827
1 -2.37 11.0296 2.38201
2 -11.4943 5.03497 -0.126512
2 -11.0278 -7.73479 2.33862
2 1.32046 -13.1807 -2.28204
2 12.3521 -5.50647 2.3037
3 1.35495 2.10172 13.5224
3 2.42947 -0.0337745 -13.2612
2 -9.76126 -8.65495 4.5112
2 2.69285 -12.1865 -4.56434
2 12.3681 -3.97698 4.42362
2 -1.23397 2.2162 13.3443
2 1.06096 2.15246 -12.9172
2 10.8733 6.29214 2.36408
2 0.0593408 12.56 -2.26253
2 -10.6014 6.51342 2.37086
2 0.0343991 -12.5128 2.38454
2 10.7234 -6.27123 -2.08573
2 9.53839 5.23382 4.45036
2 -9.40952 5.46537 4.38953
1 -11.0248 -4.58874 -6.55764
1 0.00957284 -11.025 4.59007
2 9.44576 -5.43062 -4.27022
2 8.25731 4.64752 6.71559
2 -0.0142908 9.64205 -6.67479
2 -8.03523 4.58299 6.51365
2 -8.4834 -4.56724 -6.40096
1 -0.0352228 -9.35457 6.67964
2 7.80585 -4.59606 -6.57112
2 6.81644 3.79517 9.04466
1 -0.0911124 7.77485 -9.12413
2 -6.92881 -3.8893 -8.68288
2 -0.306879 -7.91476 8.78654
2 6.70786 -3.76516 -8.90074
2 5.38235 3.27769 11.2746
2 -5.4729 2.96073 11.2202
2 -5.5034 -3.10953 -11.0034
2 -0.0344359 -6.24665 11.1461
2 5.21883 -3.0703 -11.0019
2 9.62359 10.3049 -1.97692
2 -3.60613 13.2736 2.46091
1 -9.39508 -10.3491 2.08642
2 4.00788 -13.253 -2.21368
2 13.5428 -3.00917 2.26629
2 0.242466 4.45751 13.1675
3 3.74466 2.42587 -13.1839
2 9.63755 8.9087 2.30893
2 -2.50479 12.5719 -2.37917
2 -9.66651 -8.5276 -1.96384
2 2.67618 -12.5778 2.1846
2 12.2117 -3.9835 -2.27528
2 -2.66019 11.1881 -4.77047
2 -10.67 3.07135 4.30739
2 -8.30547 -7.66768 -4.15342
2 10.6437 -3.16702 -4.50936
1 7.01673 7.32858 6.55069
2 -2.57332 9.64088 -6.83628
2 -9.6141 2.19314 6.65001
2 -6.94434 -6.7829 -6.50832
2 2.62175 -9.58345 6.58715
3 9.39456 -2.1957 -6.5632
2 5.25574 6.04332 9.22051
2 -2.6893 7.81495 -8.96644
2 -7.82608 1.50904 8.71899
2 -5.46718 -6.11089 -8.70063
2 8.03825 -1.3904 -8.79544
2 -2.78556 6.20139 -11.0362
1 -6.86966 0.607757 11.1665
2 -4.11246 -5.40792 -11.0668
1 2.79737 -6.26272 11.1972
2 6.65689 -0.584913 -11.0645
2 8.3922 11.1727 2.37778
3 -5.14328 12.4947 -2.10727
2 -13.2121 1.42374 1.77153
2 -8.1036 -10.5698 -1.89145
2 5.53423 -12.4418 2.28279
2 13.4957 -1.39224 -2.13741
2 -5.07894 10.9467 -4.54402
2 -12.2164 0.681191 4.36888
2 5.71179 -10.9529 4.62342
2 12.1638 -0.672955 -4.34585
2 5.60027 9.4658 6.63987
2 -5.19196 9.48858 -6.66888
2 -10.8546 -0.279227 6.62717
2 -5.59283 -9.12426 -6.15847
2 5.38506 -9.39093 6.82581
2 4.3282 8.68086 8.91314
2 -5.48635 7.93318 -8.80939
2 -9.42991 -0.724682 9.04577
2 -4.30221 -8.39651 -8.42295
2 5.56056 -7.98639 8.94484
2 9.22145 0.886033 -8.68198
2 2.85442 7.77677 11.0476
1 -6.89082 5.36884 -8.86723
2 -8.07512 -1.65705 11.4175
2 -2.70721 -7.61864 -10.8482
2 5.43345 -6.30641 11.2582
2 7.82023 1.7257 -11.0342
2 9.56569 16.3838 0.0800922
3 -9.22898 16.3224 0.102086
2 -18.1588 0.116632 -1.04267
2 -9.37314 -16.3258 0.144162
2 9.38713 -16.5295 -0.31056
2 -0.34931 10.1791 15.2129
2 0.189614 -10.8485 -15.2282
2 9.0849 5.49032 -15.2335
2 -9.88952 5.21146 -15.4311
2 17.7179 -0.626176 2.46496
2 17.6903 0.666086 -2.03975
2 6.90721 16.5705 0.0180433
2 8.31547 15.7657 2.39328
2 9.59261 14.9878 -2.14026
2 -10.7805 14.293 -0.162541
2 -7.84537 15.7054 2.11433
2 -9.32008 14.8841 -2.24766
2 -18.0296 -2.5854 -0.0909546
2 -17.2271 -0.804312 1.76012
2 -16.023 0.705874 -2.72588
2 -6.62953 -16.5284 -0.0798345
2 -9.56734 -14.8089 2.25817
2 -7.97836 -15.5587 -2.27485
2 10.8555 -14.2676 -0.00653963
2 9.56693 -14.9567 2.13235
2 8.00815 -3.2635 15.6741
2 6.80434 -5.69666 15.6278
2 1.42323 -8.44714 -15.4565
2 6.48674 5.62791 -15.2879
2 16.2576 4.70576 -0.0195148
2 16.4229 -1.69576 4.53412
2 16.3847 1.57371 -4.44382
2 4.37374 16.7772 0.116766
2 6.89133 14.9696 4.51955
2 9.61673 13.4994 -4.32645
2 -11.8 11.7173 -0.185932
2 -6.39858 14.8619 4.39421
2 -8.99863 13.1694 -4.53565
1 -16.6513 -4.76464 -0.0476668
1 -16.356 -1.54945 4.29946
3 -3.95497 -16.4497 0.068287
2 -6.59308 -14.5959 -4.36834
2 12.1115 -11.8534 0.0489526
2 9.53271 -13.2412 4.5234
3 6.68099 -14.4593 -4.26049
2 6.90009 -0.758659 15.6903
2 4.0037 -5.6925 15.6198
2 -2.59809 6.30344 15.4946
2 3.65482 5.67591 -15.2961
2 14.834 6.94945 0.0467339
2 15.0249 -2.41915 6.65711
2 14.7304 2.5089 -6.55457
2 5.27264 14.2683 6.65679
2 9.64625 11.9613 -6.41908
2 -13.3755 9.49971 -0.437542
3 -5.03448 13.6535 6.17099
2 -9.28229 11.688 -6.82503
2 -14.9804 -2.49086 6.43529
2 -1.17047 -16.2301 0.114747
2 -9.51694 -11.8357 6.63277
3 -5.46489 -13.9473 -6.75956
2 13.7077 -9.46287 -0.0208635
2 9.65394 -11.8512 6.83396
2 5.42581 -13.8332 -6.50257
2 5.54192 1.52887 15.8275
2 1.16564 -5.6179 15.4605
2 -4.10663 3.89388 15.4439
2 4.06131 -3.84774 -15.4058
2 -4.01315 -3.90354 -15.5576
2 0.953719 5.44202 -15.144
2 13.4737 9.53399 0.424739
2 13.5606 -3.08609 9.02692
3 13.4085 3.44461 -8.61133
2 -1.04758 16.6608 -0.0615536
2 4.25962 13.408 9.01902
2 9.31079 10.3731 -8.55353
2 -14.0735 6.85576 -0.224099
2 -4.04438 12.8466 8.55694
2 -9.46214 10.0267 -9.06135
2 -13.5129 -9.50124 -0.131528
1 -13.6715 -3.15954 8.59927
2 1.60538 -16.4094 -0.150808
2 -9.65322 -10.2829 8.85503
2 -4.20738 -13.2257 -9.60492
2 15.0303 -7.0344 -0.0620054
2 9.61304 -10.3772 9.04124
1 3.90028 -13.1037 -8.67482
3 4.22368 3.90066 15.5968
2 -1.54662 -5.55529 15.7148
2 -5.64126 1.54203 15.5972
2 5.22483 -1.46573 -15.6241
2 -5.42529 -1.8306 -15.5243
1 -4.14061 5.40658 -16.6668
2 12.2194 11.7685 0.183188
2 12.1896 -3.94111 11.0823
2 11.9168 4.13716 -10.8329
2 -3.84727 16.3966 -0.157158
2 2.78203 12.6435 11.34
2 9.39157 8.73256 -10.7867
2 -15.3824 4.55563 -0.282356
2 -2.52407 12.3028 10.7395
2 -9.55795 8.45468 -11.268
2 -12.4217 -3.77901 11.0276
2 -12.1676 3.85658 -11.1577
2 4.13161 -16.0646 -0.084872
1 -9.72746 -8.62778 11.132
2 16.4847 -4.70845 0.0551173
1 10.8618 -8.07309 9.01204
2 3.07614 -11.9461 -10.9147
1 2.90319 6.32426 15.4121
2 -4.07154 -5.36292 15.5972
2 -6.87361 -0.785504 15.6654
2 6.47445 0.956388 -15.753
2 -6.81477 0.798548 -15.6929
2 11.1162 14.2186 0.187517
2 11.1181 -4.76721 13.3586
2 10.6484 4.85831 -12.9284
2 -6.48557 16.385 -0.274108
2 1.50869 11.4999 13.6141
2 9.16835 7.17085 -13.1611
2 -16.7529 2.16456 -0.698913
1 -1.06301 11.5798 13.0576
2 -10.7149 -13.8827 -0.0298419
2 -10.8544 -4.42148 13.1137
2 -10.9827 4.40898 -13.3281
2 6.80747 -16.3515 -0.231917
2 -9.76248 -7.12558 13.2418
2 -1.34501 -11.7071 -13.1576
2 17.7459 -2.35468 0.139197
2 9.59764 -7.24346 13.3119
2 1.37874 -11.5495 -12.9445
2 1.70164 8.43485 15.0618
3 -6.83443 -5.6219 15.4053
2 -8.25063 -3.41958 15.6706
2 7.74315 3.30527 -15.3571
2 -8.4578 3.02584 -15.6974
2 -7.02208 5.29545 -15.6111
2 16.2705 3.16989 -1.96944
2 5.61764 15.9642 2.22416
2 -10.5117 12.4671 -2.22597
1 -16.4261 -3.27036 2.24079
2 -5.38428 -15.4851 -2.35914
2 10.7775 -12.5663 2.10399
2 5.41266 -3.35264 15.7047
3 0.0121206 -6.18242 -15.5223
2 14.9627 4.07096 -4.30853
2 4.21369 15.1775 4.42414
2 -10.5796 10.9925 -4.51379
2 -15.2095 -4.08496 4.22722
2 10.7616 -10.9459 4.53897
2 2.75202 -3.28522 15.5837
3 -1.20962 -3.72172 -15.5083
2 13.5638 4.70836 -6.43577
2 2.69916 14.1649 6.59613
2 -10.5082 9.34136 -6.56002
3 -13.7449 -4.67015 6.42877
2 -2.76847 -13.8394 -6.80377
2 10.7721 -9.45266 6.71431
2 -0.02887 -3.1757 15.5153
2 -2.73675 -1.7139 -15.3862
2 11.9478 5.60091 -8.63167
2 1.57801 13.2809 8.91591
3 -10.843 7.66767 -8.9996
2 -12.2317 -5.47836 8.60532
2 -1.46086 -13.1326 -8.89369
3 -2.64467 -3.20709 15.5275
2 -4.26523 0.733955 -15.7051
3 10.5613 6.3352 -10.8574
1 0.00625307 11.9937 10.545
3 -10.8572 6.26224 -11.0447
2 -11.045 -6.12039 10.9656
2 -0.0126508 -12.209 -10.9946
2 11.0535 -6.52358 10.9776
3 -5.81789 3.06391 -15.7365
2 16.3607 1.48658 2.12858
3 7.00731 14.8665 -2.12637
2 -9.11459 13.5133 2.29007
3 -16.7498 -1.82587 -2.03756
2 -6.88635 -14.8447 2.21372
2 15.0501 0.851076 4.64687
2 6.76313 13.3002 -4.37665
2 -7.71358 12.5408 4.41629
2 -15.0777 -0.785054 -4.63198
2 -6.81408 -13.3562 4.28879
2 13.7365 -0.0946864 6.81893
2 6.56691 12.0355 -6.48551
1 -13.123 0.344085 -7.87178
2 -6.9618 -12.1113 6.45924
2 6.82539 -11.6399 -6.41602
2 12.4507 -0.640202 8.97986
2 6.62461 10.3491 -8.82819
2 -5.36288 10.6251 8.99888
2 -6.8578 -10.2438 8.82211
2 4.95405 -10.6909 -9.10833
1 10.8253 -1.57477 11.2218
2 -3.97106 9.8991 11.1405
2 -10.6754 1.36913 -11.1223
2 -6.89937 -8.74893 11.0824
2 9.47706 -2.60754 13.4277
2 6.34758 7.26546 -12.9092
2 -2.42459 9.4093 13.5322
3 -9.46693 2.1035 -13.3805
2 -6.89619 -7.05447 13.2486
2 14.9992 5.57395 -2.20221
2 2.82124 15.9173 2.25029
2 -11.4967 9.99816 -2.32536
2 -15.2682 -5.65598 1.86402
2 -2.61938 -15.7745 -2.1778
3 12.2366 -10.2318 2.14179
1 4.14481 -0.911585 15.6199
2 1.40491 -3.95088 -15.4217
2 13.5694 6.40732 -4.32961
2 12.2132 -8.74302 4.45156
2 1.28465 -0.77478 15.6067
2 -0.0147702 -1.50893 -15.5977
2 12.4012 7.21432 -6.54447
2 0.16159 14.0801 6.63796
2 -12.2842 7.16905 -6.85572
1 -12.2912 -7.09164 6.58701
2 12.3719 -7.13272 6.34292
2 -1.50566 -0.803037 15.5965
2 -1.54248 0.855229 -15.5055
2 10.6304 7.96297 -8.56141
2 -1.24045 13.4376 8.78941
2 -12.4017 5.32796 -9.12187
2 -11.0006 -7.84253 8.74309
2 12.4663 -5.60677 8.89041
3 -4.19244 -0.714551 15.613
2 -3.07298 3.20415 -15.5986
2 15.0827 3.92445 2.20228
2 4.28945 15.0901 -2.261
1 -11.5501 9.15044 2.33552
2 -15.1006 -4.06981 -2.15475
2 -4.16695 -14.8759 2.12773
3 10.8675 -11.0212 -2.22576
2 4.15592 13.3225 -4.56612
2 -9.42693 10.3842 4.44867
2 -13.7042 -3.14426 -4.61262
3 -4.13019 -13.5412 4.43712
1 9.57313 -10.0312 -4.35128
2 12.4693 2.33659 6.9196
2 -8.00962 9.20806 6.6957
2 -4.14903 -12.0855 6.66856
2 7.98533 -9.16538 -6.57329
1 11.0168 1.65999 9.17621
3 -6.70866 8.4353 8.88479
1 -12.4503 -2.18618 -6.81392
1 -4.00768 -10.3297 8.73874
2 6.5913 -8.2545 -8.63956
1 9.51264 0.988429 11.2859
2 4.20707 8.83245 -10.769
2 -5.43477 7.42939 10.8741
1 -11.1742 -1.28133 -8.89995
2 5.43721 -7.72541 -10.8542
2 8.06809 -0.104168 13.5804
2 3.66237 7.1747 -12.7248
2 -3.82075 6.93637 13.2844
2 -8.38177 -0.246124 -13.5957
2 -3.99002 -6.94155 13.4319
2 3.96396 -7.12732 -13.0369
2 13.6264 7.90803 -1.99036
2 0.177574 15.7991 2.14632
2 -12.2235 7.30376 -2.17504
2 -13.6837 -7.82868 2.1741
2 -0.023628 -15.4153 -2.27095
2 13.5626 -7.97018 2.17723
2 2.87807 1.51238 15.5418
2 2.67652 -1.51687 -15.3925
2 12.2975 8.63565 -4.1962
2 -1.06387 14.8893 4.45016
2 -12.3163 -8.62693 4.51254
2 1.32654 -14.7783 -4.46018
2 13.8081 -6.3321 4.25171
2 -0.134889 1.3768 15.5222
3 1.01454 0.719469 -15.3062
2 10.6908 9.51837 -6.18471
1 -2.56297 14.4639 6.94111
2 -13.6879 4.7883 -6.87339
2 -11.0686 -9.5891 6.6575
2 2.56044 -13.8929 -6.56504
2 13.7244 -4.78896 6.66015
2 -2.911 1.53567 15.5351