2739
 Atoms. Timestep: 6000
2 -0.308342 -0.104625 0.211536
2 2.55329 -0.0794597 -0.1193
2 1.24172 2.20816 0.0664702
1 -1.34282 2.34313 -0.190724
3 -2.8658 0.0670871 -0.16283
2 -1.79229 -2.23727 0.169682
2 1.21634 -2.38848 0.123896
2 1.33306 -0.826442 2.04561
2 0.0426763 1.64171 2.32566
2 0.0505552 -1.65867 -2.17456
2 2.7604 4.70556 0.0670772
2 -2.62265 4.75036 -0.17215
2 -2.82205 -4.73959 0.167741
2 2.66067 -4.6576 0.0877751
2 2.83776 -1.59187 4.37955
1 0.139439 3.58404 5.04417
2 -2.58685 -1.49591 4.46965
1 -0.202472 -3.12352 -4.2241
2 -2.7226 1.70604 -4.35984
2 4.043 2.23233 -0.0651895
3 4.22423 0.590201 -2.23923
2 -0.0213485 4.6589 0.157298
2 1.35191 3.97521 2.4122
2 2.65662 3.06462 -2.17538
2 -4.05104 2.42671 -0.214836
2 -1.33916 4.03754 2.20149
2 -2.64578 3.14958 -2.24759
2 -3.74972 -1.07017 1.91664
2 -4.20039 0.720998 -2.29088
2 -0.20959 -4.7077 0.158333
2 -2.72533 -3.39571 2.50335
2 -1.37985 -3.95722 -2.09312
2 4.07564 -2.32877 0.0928625
2 2.71236 -3.22483 2.33642
2 1.39061 -3.94664 -2.09018
2 1.22102 0.602039 4.47381
2 0.0934852 -1.55075 4.36436
1 -1.2068 0.798727 4.29012
2 1.37856 -0.727378 -4.53251
2 -1.33027 -0.662601 -4.19752
2 0.183947 1.59835 -4.25754
2 2.72455 1.49568 2.2219
2 0.0597736 3.37335 -2.1597
2 -2.46463 1.50792 2.07386
2 -2.61353 -1.5094 -2.11959
2 -0.110821 -3.24219 2.40644
2 2.78896 -1.64271 -2.27047
1 5.39853 -0.0431004 0.134243
2 4.12824 7.18525 0.131582
2 -3.98382 7.08696 -0.261818
2 -7.93432 -0.287082 -0.0372673
2 -4.10112 -7.09628 0.176916
2 3.70248 -7.09231 -0.0410537
2 4.14614 -2.36541 6.67028
1 -1.97223 4.65648 6.36738
2 -3.89922 -2.26499 6.61415
3 -0.0139643 -4.76222 -6.58684
2 4.1257 2.45879 -6.76985
2 -4.0888 2.50495 -6.58744
3 6.82806 2.39468 0.00242904
2 6.67063 -0.604187 2.23666
2 6.87645 0.802732 -2.27356
2 1.2564 7.07356 -0.0453881
2 2.72653 6.34883 2.16282
2 4.16741 5.47249 -2.14053
2 -2.65388 6.32006 2.12926
3 -3.82566 5.57467 -2.44313
1 -6.22221 -2.18273 -0.103954
2 -6.71773 -0.874934 2.10379
2 -4.25997 -5.80913 2.37016
2 -2.61341 -6.24634 -2.08898
1 6.53177 -2.56829 0.0333915
2 4.08232 -5.49492 2.07589
2 2.73379 -6.21208 -2.41913
2 2.56748 -0.0548371 6.6417
2 1.37318 -2.77394 6.73425
2 -1.19534 2.2873 6.65221
3 1.41306 -2.35639 -6.41798
2 -1.33174 -2.39011 -6.34666
2 1.30753 2.32695 -6.76378
2 5.54736 4.66915 -0.0398223
2 5.30535 1.7067 -4.41799
2 -1.32327 7.29219 -0.189744
1 3.98884 3.87893 -4.27866
2 -6.81878 2.28189 -0.163493
1 -4.15284 3.8916 -4.52793
2 -5.44929 -4.67296 -0.0725469
2 -5.28399 -1.6313 4.35243
2 -5.61098 1.72926 -4.4049
2 -3.99162 -4.05875 4.75516
2 -1.25841 -5.44066 -4.36059
2 4.26402 -3.98955 4.52046
2 -1.30797 -2.26401 6.68803
3 -2.87293 0.1378 6.38427
2 2.60788 0.0232152 -6.61385
2 -2.53288 0.010769 -6.55514
2 -1.42069 2.50484 -6.60031
2 5.47016 3.01945 -2.28707
2 -0.0648219 6.46714 2.1412
2 -5.40522 3.21783 -2.25175
2 -5.50436 -3.21978 2.03283
2 -0.0355742 -6.19126 -2.1681
2 5.39115 -3.30259 2.23351
2 5.44482 1.71746 2.18033
2 1.33365 5.48271 -2.12557
2 -3.91628 3.88007 2.00169
2 -5.39587 -1.67885 -2.32654
2 -1.44935 -5.69343 2.33019
2 4.05687 -3.84812 -2.39391
2 4.02825 0.807578 4.53431
2 1.39776 3.99728 -4.47753
2 -2.52011 3.09671 4.48529
2 -4.05062 -0.880539 -4.42688
2 -1.18177 -4.00004 4.7894
2 4.00893 3.87984 2.34817
2 -1.35521 5.64635 -2.2888
1 -5.41199 1.40601 1.81793
2 -4.02648 -3.92969 -2.2454
3 1.31633 -5.42925 2.35251
2 5.43469 -1.5778 -2.15093
2 2.52119 3.17569 4.58993
2 -1.34161 4.05385 -4.41375
2 -3.97914 0.826178 3.97817
1 1.46289 -4.002 4.53744
2 3.98052 -0.845838 -4.55697
2 10.8556 0.143202 -0.277524
2 5.57214 9.43858 0.0824589
2 -5.50085 9.64021 0.0464497
2 -10.7851 -0.08164 -0.167008
2 -5.40386 -9.61384 0.166708
2 5.25314 -9.37678 0.093789
2 0.0384254 6.1477 8.76417
2 -5.40514 -3.2751 8.71683
2 -0.0318464 -6.19147 -8.79746
2 5.44616 3.32644 -9.09856
2 -5.46584 3.1752 -9.07415
2 9.42205 2.10244 0.0294842
2 9.22765 -0.757715 1.9713
2 9.47668 0.836439 -2.53278
2 2.56635 9.41325 0.0769075
2 4.24982 8.74663 2.37573
2 5.35039 7.96709 -2.16427
2 -6.7274 7.1873 -0.10936
2 -4.04107 8.63286 2.30903
2 -5.31703 7.82898 -2.30673
2 -9.45832 -2.42427 0.0219438
3 -9.39637 -1.01226 2.04641
2 -2.71993 -9.7112 0.205322
2 -5.76992 -8.08424 2.3578
2 -4.06595 -8.60564 -2.11431
3 6.89443 -7.18612 -0.0894297
2 5.44155 -7.99173 2.11731
2 3.93283 -8.70817 -2.26793
1 4.1662 -0.81484 8.78234
2 2.88933 -3.30625 8.86271
2 -1.2923 3.8894 8.61921
2 1.48238 -3.87525 -8.65495
2 -1.25069 -3.86202 -8.69498
2 2.57316 3.16195 -8.96396
2 8.30105 4.69316 -0.102026
2 8.21012 -1.65872 4.27889
2 8.10824 1.69515 -4.56109
2 0.0215423 9.6727 0.0900488
2 5.49067 6.27824 -4.3466
2 -7.98269 4.80849 -0.204415
2 -2.54651 7.70694 4.33863
2 -5.44742 6.24429 -4.59456
2 -8.13424 -4.82088 0.0408377
2 -8.10707 -1.57873 4.29997
2 -8.20264 1.53733 -4.43598
2 -0.0319522 -9.41169 0.0110165
1 -5.44671 -6.55976 4.78985
2 -2.62173 -7.66835 -4.26348
2 8.10389 -4.78031 -0.0564041
2 5.49928 -6.30302 4.23022
2 2.89283 -7.86155 -4.46939
2 2.69074 1.40232 8.92825
3 -0.0781088 -3.17685 8.8565
2 -2.72127 1.49596 8.62966
2 2.64489 -1.62211 -8.69188
2 -2.56932 -1.48632 -8.68874
2 -0.0491382 3.50503 -9.03796
1 6.75848 6.86328 0.0201025
2 6.85551 -2.3627 6.42164
2 6.64943 2.30314 -6.85733
2 -2.85784 9.61997 0.0102454
2 1.64034 7.07673 6.41442
2 5.44313 4.75369 -6.84323
2 -9.48734 2.24106 -0.22209
2 -1.33271 7.02262 6.64749
2 -5.37364 4.78818 -6.67407
2 -6.84063 -7.16586 -0.0132791
2 -6.81214 -2.5453 6.6338
2 -6.84909 2.43677 -6.65956
2 2.50361 -9.32148 0.043206
2 -1.37735 -6.93674 -6.46551
1 9.24594 -2.42807 -0.283905
2 1.38504 -6.89983 -6.53555
2 1.32909 3.82964 8.95082
2 -2.63359 -3.52946 8.63443
2 -3.87205 -0.843345 8.7163
2 4.04229 0.968397 -8.81377
2 -4.04728 0.889235 -8.81829
2 -2.71324 3.30579 -8.98974
2 -6.67787 5.61741 -2.33934
2 -8.17914 -3.3816 2.16534
2 -1.42074 -8.52957 -2.07538
2 6.91037 -5.6338 2.12511
2 1.48198 -1.14338 8.90424
2 -0.0440542 -1.3779 -8.71289
2 6.6935 3.87223 -4.5175
2 0.00891387 7.90278 4.42498
2 -6.83345 -4.03023 4.46696
2 0.0350407 -7.74813 -4.42414
2 6.74845 -3.99395 4.32425
2 -1.26518 -0.916147 8.7717
3 -1.30754 1.01718 -8.93684
2 8.15086 1.54985 2.00857
2 2.64563 7.87713 -2.20895
2 -5.35208 6.26614 2.07046
2 -2.78049 -7.93722 2.25009
2 5.37986 -6.27685 -2.2724
2 2.79045 6.18272 -4.50434
2 -4.05253 5.6325 4.33994
2 -6.62036 -0.723202 -4.63434
2 -2.64495 -6.45864 4.53182
2 4.31676 -5.47529 -4.54891
2 5.32682 0.297145 6.46345
2 2.86572 4.83189 -6.68299
1 -5.40191 0.112298 -6.85901
2 2.51971 -4.80577 -6.35992
2 -1.32432 8.73936 2.19821
2 -8.22536 3.09766 -2.45989
2 -6.73479 -5.60961 2.24035
2 1.22541 -8.60926 -2.16056
2 8.09554 -3.24347 2.01575
2 0.0284834 1.40998 8.62414
2 1.2604 0.967441 -9.00037
2 6.87744 3.93526 2.20738
2 0.0363605 8.08746 -2.35504
2 -6.63493 3.72685 2.07645
3 -6.64647 -4.04752 -2.3262
2 0.0415993 -7.84848 2.195
2 6.82212 -4.01536 -2.14502
2 0.00523282 6.34795 -4.5228
2 -5.15222 3.02625 4.27763
2 -5.50321 -3.16477 -4.50071
2 0.0481341 -6.24502 4.55507
2 5.56508 -3.2536 -4.49949
1 5.46517 3.16054 4.3585
2 0.125771 4.70397 -6.64095
1 -3.99359 2.62912 6.80202
2 -4.08365 -2.38304 -6.63117
2 -1.17859 -5.85259 7.03596
2 3.93945 -2.7132 -6.36126
2 5.55772 6.10859 2.45854
3 -2.7591 7.97178 -2.38141
2 -8.33385 1.43073 2.31098
2 -5.4224 -6.22183 -2.35392
3 2.69119 -7.89223 2.23392
2 8.10427 -1.54067 -2.35283
2 3.86529 5.7321 4.53411
2 -2.78083 6.31635 -4.57627
2 -6.6129 0.745126 4.38842
2 -4.00717 -5.51466 -4.3728
2 2.92225 -6.35323 4.26596
2 6.71999 -0.856968 -4.53634
2 2.54059 4.76824 6.68414
2 -2.81364 4.78785 -6.80901
2 -5.40032 -0.195518 6.74208
2 -2.6865 -4.56915 -6.35578
2 2.90626 -4.92823 6.55731
2 5.27456 -0.0517336 -6.71991
2 13.4811 0.0460996 -0.143754
2 6.69456 11.753 0.00369119
2 -6.92276 11.9815 0.168335
1 -13.5362 -0.17102 -0.0904942
2 6.66777 -11.7234 0.105121
2 6.76094 -3.88725 10.9285
2 0.113521 7.82984 10.9955
2 -8.04405 -1.69232 11.0478
2 0.152892 -7.7695 -11.0417
2 6.88157 3.89572 -11.3294
2 -7.05956 3.86668 -11.3582
3 12.174 2.34113 0.0786394
2 12.0749 -0.654127 2.06728
2 3.99101 11.5539 0.0611062
2 5.63672 10.8432 2.23617
2 6.75358 10.1638 -2.3386
2 -8.19649 9.47252 -0.111885
2 -5.52704 11.0418 2.281
2 -6.7936 10.2438 -2.16901
2 -12.0571 -0.949077 2.19521
2 -12.2423 0.881163 -2.32864
2 -3.89547 -11.9113 0.35519
1 -7.0366 -10.4077 2.17324
2 -5.39111 -10.9922 -1.84888
2 8.02642 -9.50109 0.0246011
2 6.74514 -10.1385 2.21432
2 5.40627 -11.0852 -2.15501
2 5.3606 -1.60193 10.9398
3 4.08987 -3.91893 11.1576
2 -1.36562 5.44941 11.0654
2 1.40348 -5.47794 -10.9605
2 -1.31753 -5.61861 -11.1181
2 4.16991 4.16573 -11.1794
2 10.9482 4.75295 -0.0411173
2 10.8399 -1.62809 4.3325
2 10.9042 1.63635 -4.56578
2 1.33609 11.8561 0.196119
2 4.19531 10.3213 4.49892
3 6.74239 8.56192 -4.44941
2 -9.52703 7.11036 -0.163496
2 -6.77049 8.51348 -4.62989
2 -10.8584 -4.60982 -0.120395
2 -10.6669 -1.81828 4.30836
2 -10.8085 1.59888 -4.49264
2 -1.32805 -11.7808 0.219503
1 -4.22407 -8.71504 4.50671
2 -3.90605 -10.0129 -4.5064
3 9.26195 -7.19511 -0.00129773
2 6.71071 -8.55811 4.35612
2 4.18345 -10.2617 -4.58329
2 3.95988 0.509363 11.0739
2 1.35259 -3.99741 10.8895
2 -2.63222 2.9999 11.0117
2 2.85596 -3.19512 -10.9926
2 -2.58753 -3.1509 -10.9096
2 1.17843 3.99179 -11.1301
3 9.4179 2.43955 -6.56653
2 -1.46133 11.8961 0.183515
2 2.74951 9.27037 6.67169
2 6.70638 7.29007 -6.68797
2 -10.7991 4.61805 -0.0311604
2 -2.75945 9.45107 6.79355
2 -6.9014 7.12456 -7.03492
3 -9.53997 -7.00693 -0.00919947
1 -9.42398 -2.42316 6.67469
2 -9.66502 2.54619 -6.68151
2 1.41821 -11.738 0.0325661
2 -6.61218 -7.15835 6.98278
2 10.8085 -4.7802 -0.218231
2 6.74431 -7.12515 6.4594
2 2.6283 -9.30475 -6.61672
3 2.7771 2.81739 11.074
2 -1.47801 -4.05253 11.0011
2 -3.62982 0.707719 11.0195
2 4.07286 -0.813431 -11.0376
2 -4.05632 -0.780701 -10.9502
2 8.1021 9.19789 -0.0478786
2 8.07193 -3.30354 8.78751
1 8.08353 3.28673 -8.8374
2 -4.13343 11.8889 0.0028174
2 1.5479 8.65127 8.95651
2 6.71323 5.73073 -9.08141
2 -12.2244 2.25397 -0.00326908
2 -1.20551 8.65024 8.95965
2 -6.91266 5.54013 -9.06799
2 -8.16355 -9.2494 0.279326
2 -8.20468 3.24834 -8.92701
2 3.97266 -11.9708 0.136678
2 -1.33868 -8.61068 -8.66676
2 12.1363 -2.49227 -0.285324
2 6.61614 -5.50989 8.58959
2 1.24274 -8.54621 -8.90662
2 1.51486 5.50936 10.9665
1 -4.1419 -3.95781 11.1318
2 5.42053 1.56078 -11.0805
1 -5.45618 1.58881 -11.2453
2 -3.87082 4.17539 -11.2657
2 10.9029 3.16803 -2.11065
2 2.7274 11.1444 2.43836
2 -8.00068 7.85746 -2.35708
2 -10.6852 -3.37191 2.18962
3 -2.72998 -10.7469 -2.42363
2 0.107317 -3.13451 -11.0071
3 9.48818 3.95738 -4.48054
2 1.4527 10.1609 4.63057
2 -8.00873 6.10051 -4.54584
3 -9.558 -4.08944 4.52918
2 -1.29817 -9.93975 -4.4275
2 -0.0487626 -1.70847 10.9466
3 -1.19881 -0.828419 -10.9082
1 8.0615 4.85119 -6.61803
2 0.0756822 9.43095 6.6241
2 -8.28183 4.75065 -6.6741
2 -8.20564 -4.74241 6.915
2 -0.0225809 -9.37418 -6.63747
2 8.05911 -4.80749 6.37745
2 -2.67641 -1.71261 10.9956
2 -2.54816 1.6091 -11.0409
3 10.8378 1.5031 2.19399
3 4.09669 10.2477 -2.23043
2 -6.77808 8.62327 2.19162
2 -10.9595 -1.71082 -2.35341
2 -4.18442 -10.1948 2.55027
2 6.78962 -8.78412 -2.18678
1 9.324 0.804213 4.26584
2 4.05652 8.78336 -4.40932
2 -5.32812 7.88942 4.33275
2 -9.57724 -0.776062 -4.39991
3 5.40403 -7.94178 -4.21949
2 7.97177 0.0333462 6.4163
2 4.02211 7.25199 -6.57645
2 -3.95869 7.04871 6.64135
2 -8.24061 0.0696678 -6.63771
2 -3.85463 -7.22294 6.67998
3 3.92107 -6.94498 -6.66977
2 6.66746 -0.870572 8.77687
2 4.04253 5.7197 -9.02577
2 -2.58683 6.26137 8.77763
2 -6.94919 0.986253 -9.05164
2 -4.23911 -5.48124 8.82479
2 2.74436 -6.27793 -8.81094
1 9.36613 5.06254 -2.25785
2 0.105731 11.046 2.41183
2 -9.56039 5.40138 -2.14363
2 -0.0495578 -11.0479 -2.09373
2 9.5335 -5.55441 2.04664
2 1.24386 0.633254 11.1416
2 1.36628 -0.779004 -10.8871
2 8.05633 6.34582 -4.41236
1 -1.43866 10.1633 4.66412
3 -9.66158 3.87624 -4.55456
2 -8.07239 -6.34192 4.74337
2 9.44636 -3.93315 4.18535
1 -1.29693 2.26898 13.006
2 -0.0485073 1.62041 -11.0823
2 9.50251 3.88254 2.03312
2 1.37137 10.4058 -2.09356
2 -8.21548 6.24647 2.06034
2 -9.27512 -3.81914 -2.19324
3 -1.3967 -10.1455 2.35531
2 8.126 -6.416 -2.45798
2 8.00015 3.19114 4.35069
2 1.36071 8.91794 -4.43206
2 -6.74541 5.50836 4.24833
2 -8.02261 -3.10952 -4.41559
2 -1.20118 -8.63073 4.46583
1 6.9267 -5.56869 -4.60466
2 6.67983 2.42003 6.49629
2 1.23318 7.23974 -6.74189
2 -5.59945 4.65198 6.35899
2 -6.90225 -2.34261 -6.66367
2 5.39214 1.58164 8.7846
2 1.3957 5.76352 -8.79121
2 -5.40102 -1.6339 -8.85743
2 3.98941 -3.98886 -8.76567
2 8.25326 7.91451 -2.23998
2 -2.87251 10.8947 2.37243
2 -10.943 3.09573 -2.28966
2 -8.86636 -7.39363 2.36208
2 2.72151 -10.9557 -2.41378
2 0.225873 3.17681 11.055
2 2.72354 1.7986 -11.1708
2 8.22552 6.32055 2.12338
2 -1.39153 10.1647 -2.14324
2 -9.38823 4.03796 2.18286
2 -8.20702 -6.36661 -2.26167
2 1.23071 -10.058 2.25596
3 9.52279 -3.86819 -2.23477
2 -1.39124 8.79655 -4.7596
2 -8.04537 3.12474 4.47937
2 -6.71362 -5.57642 -4.4057
2 1.39045 -8.64994 4.5473
2 8.3979 -3.34321 -4.62267
2 5.25027 4.76377 6.39885
2 -1.31318 7.25468 -6.85312
2 -6.494 2.32498 6.54743
2 -5.42986 -4.54705 -6.72429
2 1.31085 -7.14589 6.66054
2 6.69962 -2.424 -6.81578
2 3.96507 3.83055 8.78869
1 -1.32019 5.58619 -9.02565
2 -5.32238 1.45557 8.76677
2 -3.8625 -3.86916 -8.673
2 1.10186 -5.41845 8.72126
2 5.26138 -1.4755 -8.88676
3 6.90906 8.48285 2.23068
2 -4.18883 10.2546 -2.25571
2 -10.7886 1.36673 2.04277
2 -6.73786 -8.65267 -2.02621
2 3.82812 -10.3298 2.32388
2 10.7821 -1.49861 -2.283
2 5.5322 7.73296 4.47523
2 -4.0901 8.60517 -4.54411
2 -9.29387 0.80557 4.40301
2 4.10549 -8.74686 4.27391
2 9.48336 -0.941509 -4.58578
3 4.21645 7.06314 6.80077
2 -4.29528 7.19051 -6.87923
2 -8.065 -0.124077 6.6239
2 4.27962 -7.1384 6.44437
2 8.17097 -0.0182037 -6.83612
2 2.93546 6.49866 8.82023
2 -4.04947 5.69687 -9.04525
2 -6.71714 -1.0109 8.97725
2 -2.67633 -6.25763 -8.76219
1 6.80896 0.780395 -8.97741
2 8.36155 14.1261 0.271867
2 -8.32597 14.376 0.167857
2 -16.2183 -0.102927 -0.151104
2 -8.10904 -13.8865 -0.0279088
2 7.91069 -14.1769 0.103913
2 8.03045 -4.58797 13.2381
2 0.0873824 9.34529 13.553
1 -8.32329 -4.84448 13.4163
1 0.0868407 -9.48549 -13.5819
2 8.46333 4.89968 -13.4803
2 -8.24003 4.75146 -13.523
1 14.6679 -2.37609 6.58572
2 14.8566 0.792361 -2.26949
1 2.64681 14.1675 0.0927575
2 6.86711 13.0647 2.1275
3 8.13968 12.6121 -2.18982
2 -9.78341 12.0248 0.139002
2 -7.0884 13.6458 2.42539
2 -8.31458 12.7666 -2.15878
2 -14.8327 -2.5591 0.0136488
2 -14.8482 -0.928418 2.10171
3 -14.9643 0.643156 -2.31557
2 -5.27825 -14.3201 0.105884
2 -8.16802 -12.5378 2.32381
1 -6.6594 -13.1445 -2.11184
2 9.3958 -11.8155 -0.000150872
2 7.95172 -12.7605 2.42434
2 6.78456 -13.3264 -2.21603
2 6.8833 -2.21071 13.0475
2 5.44622 -4.5464 13.2146
2 -1.33628 7.21737 13.2635
2 1.50279 -6.99661 -13.2957
2 -1.26276 -7.28231 -13.2985
2 5.55252 4.81911 -13.4901
2 13.5123 4.62576 -0.0158785
2 13.6624 -1.60632 4.19299
2 5.40864 12.5316 4.36147
2 8.22556 10.8772 -4.32325
2 -11.0959 9.44193 0.0552146
1 -5.48359 12.7708 4.42358
2 -8.0455 10.932 -4.31582
2 -13.4011 -4.96929 0.000257451
2 -13.3976 -1.6054 4.3971
2 -13.6665 1.53059 -4.59649
2 -2.64137 -14.2592 0.0997756
1 -5.95919 -11.4759 -4.31372
2 10.8377 -9.46416 0.0108952
2 7.93571 -11.0005 4.4513
1 5.37009 0.113653 13.3845
2 2.69043 -4.69524 13.0555
2 -2.66634 4.72078 13.4103
2 2.93724 -4.85258 -13.0848
2 -2.57101 -4.77348 -13.2639
2 2.69648 4.59455 -13.4335
2 12.1096 -2.19886 6.54163
2 12.1042 2.42936 -6.71709
2 -0.126516 14.2565 0.117676
2 4.11392 11.8377 6.65211
2 7.97056 9.51798 -6.62448
1 -12.2994 7.01776 0.0378277
2 -4.23501 11.724 6.48347
2 -8.21934 9.46217 -6.74296
2 -12.1 -7.07302 -0.177864
2 -12.0534 -2.31842 6.58822
2 -12.3518 2.46744 -6.75981
1 -0.0516556 -14.237 -0.0625897
2 -9.44369 -7.04542 6.91069
2 -4.49614 -11.6754 -6.52928
1 12.0095 -7.10855 0.186038
2 8.14823 -9.56944 6.61769
2 3.95086 -11.6308 -6.81789
2 -0.145992 -4.62401 13.1358
2 -4.03671 2.29484 13.3148
2 4.07836 -2.39817 -13.1374
2 -3.83797 -2.58156 -13.4103
2 -0.0677568 4.67341 -13.449
2 10.9168 9.30874 0.0321954
2 10.7683 -3.20538 8.50894
2 10.7284 3.28604 -8.80092
2 -2.76831 14.256 0.110934
1 2.77996 11.8183 9.76258
2 8.18384 8.02117 -8.83677
1 -13.4803 4.57534 -0.0731733
2 -2.66906 11.0489 8.95353
3 -10.7207 -9.36063 -0.0817253
2 -10.8708 -3.13989 8.87565
3 2.5954 -14.1959 0.145872
2 -8.3701 -7.84306 9.0295
2 -2.68632 -10.788 -8.7616
1 13.5704 -4.88986 0.0177775
2 8.02504 -7.87968 8.98332
3 2.67634 4.4656 13.1103
1 -2.66681 -4.55713 13.2657
2 -5.19756 -0.0634715 13.2375
2 5.46961 0.0528077 -13.2598
2 -5.37808 0.0187271 -13.2287
2 9.46901 11.7783 0.154359
3 9.40199 -3.89545 10.8374
2 9.63161 4.13951 -11.0641
2 -5.46566 14.1903 0.106918
2 1.41531 10.081 11.2317
2 8.186 6.33114 -11.2907
1 -14.9406 2.3003 -0.0854137
2 -1.20576 10.1839 11.1368
2 -9.57957 -11.7288 -0.0762216
2 -9.50833 -3.89314 11.3194
1 -9.6026 4.05492 -11.2567
2 5.24692 -14.1838 0.12193
1 -7.98957 -5.9347 11.0152
2 -1.38581 -10.1479 -10.9524
2 15.1879 -1.9145 0.393583
2 7.994 -6.17906 10.9911
2 1.50509 -9.992 -11.1965
2 1.42752 7.00706 13.1823
1 -5.45009 -4.50704 13.4039
2 -6.68804 -2.38251 13.5862
2 6.9237 2.53253 -13.4461
2 -6.80337 2.38103 -13.4367
2 -5.55115 4.86359 -13.4278
2 13.4736 2.99951 -2.12165
2 4.09771 13.1698 2.01269
2 -9.62652 10.127 -2.19168
3 -13.4568 -3.42316 2.09019
2 -4.17481 -13.2635 -2.30315
2 9.39079 -10.4906 2.12169
2 4.11173 -2.13883 13.1863
2 0.0361436 -4.67771 -13.2065
2 12.141 4.03671 -4.46149
2 2.49343 12.5161 4.65552
2 -9.82574 8.52037 -4.31239
2 -12.1676 -4.03304 4.33144
2 -2.8424 -12.5124 -4.58625
2 9.43534 -8.61754 4.19759
2 1.42575 -2.19079 13.2021
2 -1.18163 -2.47209 -13.2414
2 10.866 4.92595 -6.52656
2 1.43071 12.018 6.89955
2 -9.71854 7.26671 -6.64512
2 -10.9178 -4.72375 6.63094
2 -1.56058 -11.4835 -6.7134
2 9.45194 -7.35537 6.33306
2 -1.35507 -2.28032 13.3356
2 -2.6702 0.0304106 -13.1595
2 9.42641 5.64771 -8.69467
2 0.200622 11.0312 8.98184
2 -9.75671 5.41725 -8.96755
2 -9.44834 -5.49314 9.08777
2 0.0297986 -10.9478 -8.70505
2 9.34383 -5.5968 8.64434
1 -4.07238 -2.25819 13.2911
2 -3.97513 2.44931 -13.0704
2 13.5718 1.50327 2.01332
2 5.36078 12.5027 -2.08326
2 -8.41551 11.1887 2.29822
2 -13.733 -1.49516 -2.24383
2 -5.50905 -12.5846 2.34488
3 8.11553 -11.0975 -2.23133
3 12.2502 0.595055 4.34535
2 5.46441 10.9862 -4.40438
2 -6.87017 10.3301 4.50434
2 -12.3538 -0.696466 -4.52432
1 -5.4385 -11.1471 4.46844
1 6.79049 -10.1885 -4.59743
2 10.6934 -0.0118695 6.30972
1 5.3643 9.6276 -6.68172
2 -5.55603 9.56839 6.59527
2 -11.1523 0.119705 -6.81072
2 -5.33527 -9.61175 6.76979
2 5.49059 -9.46658 -6.59088
2 5.27474 8.17132 -8.93315
2 -4.22739 8.74597 8.8519
2 -9.56384 0.897863 -8.98891
2 -5.2163 -7.86498 8.98438
2 4.05716 -8.61395 -8.71531
2 8.15213 -1.61351 10.9222
1 5.44645 6.27051 -11.2439
2 -8.1973 1.39845 -11.2562
2 -5.50985 -6.27481 11.2468
2 2.80386 -7.72479 -11.0863
2 12.2917 5.62706 -2.06857
3 1.48279 13.3539 2.28968
2 -10.9422 7.8895 -2.27129
1 -11.508 -5.73259 2.09352
2 -1.55154 -13.2366 -2.063
2 2.6892 0.0440017 13.3203
2 10.5659 6.41614 -4.17462
2 -10.9685 6.1579 -4.26615
2 -10.7666 -6.3427 4.28167
2 -0.113119 -12.4297 -4.49089
2 10.782 -6.33537 4.13965
1 0.153051 -0.00755404 13.4218
2 -0.000637165 0.136911 -13.0759
2 9.34588 7.27221 -6.68453
2 -1.28096 11.7811 6.74796
1 -10.9586 4.72458 -6.77011
2 1.32352 -11.6531 -6.5795
2 10.9088 -4.76451 6.50585
2 -2.49574 -0.0156078 13.2591
2 -1.42287 2.61277 -13.2657
2 12.2692 3.82136 2.19773
2 2.74536 12.5288 -2.10137
2 -9.50972 8.55718 2.26406
2 -12.2418 -3.89091 -2.28362
2 9.47739 -8.77696 -2.14544
2 11.0496 3.14607 4.27755
2 2.78731 11.0651 -4.40629
3 -8.03777 7.82838 4.40919
2 -10.7794 -3.21966 -4.43111
2 -2.66781 -10.9726 4.581
2 9.52684 2.20448 6.40503
2 2.78946 9.47941 -6.84214
2 -6.80203 7.11796 6.41393
2 6.56801 -7.07389 -6.54968
2 8.10537 1.39712 8.80358
2 -5.42373 6.26118 8.80245
2 -8.27686 -1.41676 -8.99818
2 -2.63111 -7.75961 8.78142
2 5.497 -6.35195 -8.82631
2 2.77312 6.37087 -11.2763
2 -4.05528 5.35467 11.0915
1 -6.71931 -0.853557 -11.0579
2 -2.71878 -6.34629 11.0804
2 11.0785 8.13997 -2.32527
2 -1.3678 13.3239 2.39546
2 -12.3303 5.44781 -2.065
1 1.46065 -13.1892 -2.28489
2 12.2579 -5.6444 2.16626
2 1.32275 2.33081 13.2255
2 2.65275 0.0953977 -13.2913
3 9.34556 8.676 -4.37586
1 -2.30184 12.5689 4.49122
2 -12.2921 3.84684 -4.52022
2 -9.48008 -8.72243 4.65894
2 2.68782 -12.5144 -4.50089
2 12.2162 -4.12623 4.40262
3 1.41296 2.4502 -13.2947
2 10.8669 6.32593 2.17692
2 0.0426847 12.7051 -2.11982
1 -10.9436 6.32727 2.29165
2 -10.8547 -6.17932 -2.29171
2 0.0289198 -12.7959 2.11487
1 10.6939 -6.51791 -2.25357
2 9.52857 5.39174 4.40427
2 -0.00471563 11.3102 -4.29482
3 -9.25084 5.48606 4.32671
2 -9.5122 -5.51524 -4.58625
2 0.0401273 -11.0369 4.55741
2 9.664 -5.75268 -4.56312
2 8.02994 4.73737 6.50461
2 0.114092 9.75459 -6.82205
2 -8.04594 4.69813 6.61814
2 -8.22277 -4.59422 -6.73995
2 -0.174468 -9.56035 6.67678
1 8.28908 -4.74511 -6.79466
2 6.73342 3.76794 8.83341
3 -0.0281771 8.04766 -8.81177
2 -6.35971 3.81588 8.71441
2 -6.68962 -3.83569 -8.98312
2 -0.137705 -7.96582 8.85414
2 6.71443 -4.03014 -8.77357
2 5.49779 3.15236 11.1217
1 0.204093 6.43251 -11.147
2 -5.4961 3.06848 11.0838
2 -5.34762 -3.16434 -11.0361
2 -0.0752957 -6.27838 10.9768
2 5.36196 -3.31228 -11.004
2 9.53555 10.2317 -2.11044
2 -4.16993 13.5218 2.28368
2 -9.57333 -10.0753 2.40644
2 4.03853 -13.2128 -2.30968
2 13.5985 -3.26172 2.06486
2 4.17237 2.32886 -13.2566
3 9.66518 8.71615 2.03349
2 -2.73967 12.7269 -1.99644
2 -12.036 3.96097 2.2359
2 -9.51875 -8.49663 -2.24101
2 2.6701 -12.6349 2.28339
2 12.251 -4.05601 -2.30988
2 8.25398 7.81898 4.38922
2 -2.81882 11.2552 -4.33601
2 -10.6991 2.99965 4.32742
2 -8.05997 -7.90911 -4.37423
2 2.76647 -11.1173 4.59107
2 10.9553 -3.25482 -4.38129
2 6.81404 7.06436 6.69503
3 -9.23363 2.30956 6.55959
2 -6.51064 -7.05737 -6.42898
2 2.75616 -9.44918 6.70321
2 5.46909 6.17791 8.76357
2 -2.68861 8.11475 -8.89725
2 -7.97337 1.60225 8.75999
2 -5.41429 -6.19154 -8.81498
2 2.53522 -7.76954 8.87014
2 8.08883 -1.57172 -8.94663
2 -2.58633 6.42169 -11.178
2 -6.5496 0.739441 10.9883
2 -3.98576 -5.57965 -11.1484
2 2.67237 -6.19667 10.8906
2 6.88836 -0.825106 -11.3345
2 8.27983 10.9366 2.23484
2 -5.65714 12.7282 -2.0667
2 -13.5674 1.35074 2.17517
2 -8.0465 -10.9715 -2.10874
2 5.30185 -12.634 2.36879
3 13.582 -1.53474 -2.12571
2 6.92239 10.0907 4.43036
2 -5.4755 11.0091 -4.49624
2 -11.9944 0.756657 4.29618
2 5.42845 -11.2082 4.42583
3 12.1688 -0.728069 -4.50059
2 5.49476 9.34105 6.61369
3 -5.67241 9.37216 -6.85277
1 -10.664 -0.079772 6.61854
1 -5.71728 -9.42418 -5.9475
2 5.60641 -9.55064 6.522
2 10.7668 -0.143062 -6.6202
3 4.49294 8.56329 9.01344
1 -5.57843 7.92595 -9.02784
2 -9.46264 -0.837766 8.93652
2 -3.98531 -8.48098 -8.69092
2 5.2676 -7.90254 8.85664
2 9.52116 1.02225 -8.99034
2 2.9975 7.8097 11.2357
2 -5.7078 6.45744 -11.1014
1 -2.65839 -7.92925 -10.8512
2 5.29307 -6.24822 10.8877
2 8.2104 1.51824 -11.4576
2 19.278 -0.249569 -0.0513079
2 9.50683 16.7807 -0.267041
2 -9.75458 16.7813 0.203969
2 -19.1803 -0.204504 -0.13926
2 -9.48568 -16.4793 0.0151105
2 9.30665 -16.593 0.119564
2 9.70478 -5.50358 15.6029
2 0.0767672 11.4393 15.4098
2 -9.43697 -4.98909 15.885
2 -0.0050082 -11.0907 -15.5708
2 9.84789 5.53578 -15.7547
2 -9.45902 5.53149 -15.7381
2 17.2923 -0.78416 2.02969
2 17.5516 0.81839 -2.14844
2 6.87096 16.4277 0.172435
1 7.9817 15.4529 2.74445
2 9.43323 14.8209 -2.27733
2 -11.2659 14.2789 -0.0574268
1 -8.79599 15.437 3.42604
2 -9.78945 14.9874 -2.17189
2 -17.6838 -2.68687 -0.305975
2 -17.5665 -1.10914 1.90195
2 -17.6699 0.416799 -2.35559
1 -6.87103 -16.4741 0.060861
2 -9.23399 -14.8279 2.26473
2 -8.06644 -15.6315 -2.18053
3 10.697 -13.9718 -0.0212154
2 9.41832 -14.9389 2.13346
2 8.02714 -15.8528 -2.1805
2 8.25183 -3.16613 15.5307
2 6.75571 -5.3086 15.4962
2 -1.23477 8.61241 15.4725
2 1.54694 -8.72467 -15.6308
2 -1.49511 -8.68159 -15.6599
1 6.93589 5.50189 -15.8467
2 16.3247 4.56797 -0.0834386
2 16.1583 1.51752 -4.33343
2 4.11556 16.4554 0.223643
1 5.93077 14.3924 5.84174
2 9.52496 13.3223 -4.35732
3 -12.4945 11.7469 -0.144583
2 -6.75345 15.2301 4.64441
2 -9.77727 13.4526 -4.35639
2 -16.3292 -5.00526 -0.135954
2 -16.1846 -1.67424 4.19836
2 -16.3371 1.48793 -4.45311
3 -4.13971 -16.5662 0.0430329
2 -6.81429 -14.8717 -4.56411
2 12.2263 -11.7984 0.0943573
2 9.39403 -13.3334 4.46533
2 7.18296 -14.8317 -4.22752
3 7.07193 -0.915848 15.3066
2 4.18896 -5.54482 15.3682
2 -2.60989 6.30754 15.6112
2 2.79286 -6.15347 -15.5173
2 -2.58918 -6.12353 -15.5404
3 4.03975 5.33558 -15.6321
2 15.0278 7.21194 -0.0783758
1 13.4877 1.48526 -4.45726
2 1.42408 16.4881 0.202428
2 9.50071 11.8527 -6.57395
2 -13.7455 9.46775 0.0562417
2 -5.47722 14.1882 6.62781
2 -9.60161 11.7621 -6.57101
2 -15.0103 -7.29921 -0.133468
2 -15.1302 2.21689 -6.88924
2 -1.25131 -16.5359 -0.0644607
1 -9.14435 -10.9405 6.13913
2 -5.39765 -14.1852 -6.83792
2 13.4262 -9.52979 0.122701
2 9.51517 -11.815 6.66212
2 5.67487 1.53537 15.261
2 1.42976 -5.47286 15.2539
2 -3.86519 3.92315 15.6239
2 4.18288 -3.91275 -15.369
2 1.46032 5.37372 -15.6963
2 13.5134 9.31305 -0.116874
2 13.5428 3.18619 -8.94346
2 -1.37914 16.6142 0.0269873
2 9.41558 10.3176 -8.94425
2 -4.09722 13.554 8.82518
2 -9.81345 10.2816 -8.92024
2 -13.6142 -9.58242 -0.102608
1 -13.5881 -3.10319 8.60161
2 -13.796 3.06581 -8.97463
2 1.52015 -16.5371 0.22398
2 -4.05876 -13.101 -8.82647
2 9.4624 -10.1444 8.91613
3 4.08995 -13.0303 -8.71676
2 5.27087 4.38973 13.2174
2 -1.25304 -5.25062 15.4692
2 -5.24853 1.49784 15.5502
2 5.51117 -1.62527 -15.3745
2 -5.31226 -1.65319 -15.5851
2 -1.22166 5.60475 -15.4779
1 12.3451 11.8543 0.208499
2 12.1209 -3.99285 10.7706
1 12.3509 3.93487 -11.2032
2 -4.08569 16.5689 0.258684
2 1.73296 11.6069 13.4286
2 9.50514 8.86326 -11.2032
3 -16.1964 4.61601 -0.214868
2 -9.44953 8.52346 -11.1262
2 -12.2543 -11.8886 0.153915
2 -12.2228 -3.90707 11.1656
2 -12.2551 4.12809 -11.1562
1 4.12431 -16.3806 0.0930232
2 -9.7352 -8.72972 11.1452
2 16.2484 -4.3765 0.368549
2 9.60911 -8.68905 11.1634
2 2.74191 -12.4587 -10.8995
2 1.32329 4.04799 15.2697
2 -3.9752 -5.01212 15.4893
2 -6.59656 -0.685173 15.725
2 6.79693 0.742917 -15.4646
2 -6.84436 0.827238 -15.7871
2 -3.952 5.61293 -15.6526
3 10.7336 -4.60733 13.0469
2 11.3828 4.84192 -13.1991
2 -6.95225 16.6095 0.211347
1 9.66199 7.17777 -13.1909
2 -17.6009 2.33038 -0.229837
2 -1.20837 11.9711 13.0093
2 -9.50528 7.01288 -13.2895
2 -10.8466 -14.2168 0.0840689
1 -11.0595 -4.41881 13.272
2 -10.9823 4.8343 -13.3809
2 6.62592 -16.6171 -0.0109185
2 -9.73575 -7.13531 13.3985
2 -1.40145 -12.1509 -12.9648
2 17.8964 -2.39538 0.0928753
2 9.3601 -6.96456 13.3986
2 1.33508 -11.7675 -13.174
1 1.33286 8.41819 15.4721
2 -6.73665 -5.06641 15.6626
2 -8.2812 -2.71614 16.1817
2 8.47026 3.2081 -15.5837
1 -8.03148 3.11426 -15.6995
3 -6.60182 5.46669 -15.6002
2 16.2405 3.06888 -2.24892
2 5.46772 15.2832 2.10137
2 -11.0836 12.6405 -2.1662
2 -16.2146 -3.42827 2.02488
2 -5.50106 -15.5323 -2.22118
2 10.8645 -12.6406 2.26879
2 5.52237 -2.92459 15.4253
2 0.10565 -6.37378 -15.3627
2 14.9262 3.883 -4.4221
2 3.98893 14.568 4.22815
2 -10.9864 11.0015 -4.22364
2 -14.7914 -4.0568 4.23398
2 -4.25106 -14.7998 -4.45095
2 10.821 -11.0195 4.33449
2 2.77273 -3.16692 15.416
2 -1.19095 -3.78058 -15.4135
2 13.4739 4.58257 -6.72885
2 -11.0427 9.41724 -6.73292
2 -13.615 -4.66353 6.57923
2 -2.71549 -13.8928 -6.73628
2 10.9079 -9.58835 6.79881
3 0.191946 -3.01394 15.4249
2 -2.5231 -1.58047 -15.4381
2 12.1365 5.39215 -8.9881
2 -10.9546 7.87376 -8.87344
2 -12.259 -5.52192 8.97275
2 -1.33994 -13.3071 -8.86764
2 10.8223 -7.75738 8.87853
2 -4.04099 0.653972 -15.5761
1 10.9574 6.29382 -11.1028
2 0.661752 12.6624 11.1382
2 -11.0385 6.39945 -11.1221
3 -10.7889 -6.16809 11.2334
2 0.138152 -12.6192 -10.907
2 10.7553 -6.23255 10.9392
2 -5.25569 -2.91743 15.6918
2 -5.30605 3.04758 -15.3939
2 16.0782 1.57877 1.80009
2 6.91111 14.8235 -2.11419
2 -9.81056 13.5326 2.20838
2 -16.3805 -1.94371 -2.18944
2 -6.68795 -15.0188 2.23368
2 9.41111 -13.4971 -2.40582
2 14.9379 0.75328 4.20467
2 6.77235 13.3357 -4.32696
2 -15.1326 -0.936993 -4.2928
2 -6.73796 -13.2138 4.52399
2 8.05586 -12.6083 -4.41602
2 13.349 -0.0262386 6.58884
2 6.78834 11.8828 -6.66262
2 -6.81279 11.9837 6.62034
2 -13.9183 -0.0959027 -6.76323
1 -6.82024 -11.5858 6.71057
2 6.83443 10.4161 -9.05551
2 -5.39034 10.9922 8.86114
2 -12.3256 0.77402 -9.10494
2 -6.69518 -10.2041 8.97147
3 5.1906 -10.74 -8.71493
2 10.8302 -1.82053 10.6662
2 6.63815 8.60302 -11.314
2 -4.06438 10.2131 11.1023
2 -10.9051 1.50201 -11.1259
2 -6.94745 -8.41527 11.1911
3 4.05886 -10.1008 -11.0361
2 9.43972 -2.37259 13.3183
2 6.78858 7.19904 -13.816
2 -2.70327 9.35513 13.1954
2 -9.54274 2.48922 -13.3686
2 -6.75495 -6.78283 13.3834
2 2.84579 -9.35289 -13.2664
2 15.0096 5.74173 -2.22724
2 2.64859 15.6242 2.28121
2 -12.3895 10.2266 -2.11937
2 -14.9703 -5.64548 2.10581
2 -2.6886 -15.5724 -2.07749
3 12.179 -10.3281 2.25651
2 4.13844 -0.685529 15.4728
2 1.45293 -3.83766 -15.395
2 13.435 6.23406 -4.46928
2 1.12535 14.9154 4.51101
2 -13.6303 -6.38402 4.33135
2 -1.39592 -14.8582 -4.33575
3 11.9879 -8.66403 4.42488
2 0.105836 -1.3312 -15.3876
2 12.0793 7.23411 -6.70529
2 0.00514526 14.1185 6.73627
2 -12.1968 7.01678 -6.60514
2 -12.355 -6.76138 6.72246
2 -0.0982368 -13.9704 -6.71806
2 12.1157 -7.23232 6.69044
2 -1.24909 -0.667384 15.5008
2 -1.44625 0.780503 -15.627
2 10.896 7.85346 -9.06451
2 -1.03123 13.3733 8.85044
2 -12.32 5.52277 -8.85857
2 -10.9238 -7.87222 8.88975
2 1.35202 -13.2529 -8.81317
3 12.0363 -5.5947 8.68999
2 -3.82369 -0.758525 15.5896
2 -2.83808 3.17353 -15.4093
2 14.8484 3.9636 1.96336
2 4.12348 14.8384 -1.95352
2 -11.0609 11.0973 2.15196
1 -14.7449 -4.04316 -2.21812
2 -3.97372 -15.0235 2.27936
2 10.7565 -11.2183 -2.1973
2 4.02791 13.353 -4.38606
2 -9.41483 10.3402 4.36564
3 -13.6538 -2.95607 -4.48845
2 9.41578 -10.1728 -4.42268
2 12.2264 2.38021 6.54024
2 4.06507 11.8726 -6.80685
2 -8.1212 9.43396 6.65441
2 -12.3878 -2.31629 -6.65472
2 -4.00936 -11.7389 6.73901
2 8.0581 -9.32449 -6.4141
1 9.52297 -0.950027 8.48867
2 -11.0847 -1.37965 -8.84672
2 -3.9308 -10.3228 9.08908