3043
 Atoms. Timestep: 6000
2 -0.0188119 -0.115007 -0.132783
2 2.79245 -0.132513 -0.196635
2 1.35816 2.32473 0.00923366
1 -1.40674 2.26419 0.0051518
3 -2.90402 -0.0894532 -0.132021
2 -1.45489 -2.36488 -0.157708
2 1.31759 -2.55728 -0.193651
2 1.2489 -0.90455 2.20398
2 0.0139889 1.55372 2.20692
2 -1.44638 -0.752452 2.18843
2 -0.18009 -1.49941 -2.30831
3 1.21641 0.683068 -2.23583
2 -1.44025 0.745585 -2.19617
2 5.55258 -0.0135034 0.00716634
2 2.81331 4.68501 -0.243705
2 -2.72666 4.82073 0.108263
2 -5.5783 0.0108082 -0.0383019
2 -2.7543 -4.7986 -0.0511105
2 2.77483 -4.85285 0.109497
2 2.83872 -1.58597 4.53077
1 0.121199 3.22956 4.38395
2 -2.76808 -1.53021 4.4115
1 0.069137 -3.08364 -4.5006
2 2.75977 1.59812 -4.49745
2 -2.65824 1.45969 -4.458
2 4.25539 2.3722 -0.113784
1 4.31433 -0.820693 2.36611
3 4.18189 0.855124 -2.41194
2 0.0827169 4.66503 0.0574308
2 1.58755 3.86304 2.17117
2 2.84502 3.13338 -2.27828
2 -4.14565 2.44027 0.040636
2 -1.47235 3.7369 2.1912
2 -2.70551 3.21114 -2.26527
1 -4.16337 -2.47443 0.0226389
2 -4.15889 -0.915775 1.97764
2 -4.151 0.912636 -2.08926
2 0.032838 -4.90209 -0.167748
2 -2.67916 -3.1627 2.10295
2 -1.38685 -4.13063 -2.35027
2 4.06563 -2.37714 0.0626457
2 2.67393 -3.18769 2.25891
2 1.24164 -3.98829 -2.29613
2 1.33458 0.828953 4.35848
2 0.0588222 -1.48517 4.39817
1 -1.41579 0.752537 4.4726
2 1.30133 -0.619694 -4.49029
2 -1.49891 -0.763175 -4.49614
2 0.116851 1.60546 -4.47834
2 2.83407 1.38717 2.04209
2 -0.0212895 3.05274 -2.11142
2 -2.7199 1.43735 2.13801
2 -2.74594 -1.62251 -2.26442
2 -0.0326402 -3.18343 2.06799
2 2.60762 -1.64396 -2.29786
1 8.13305 -0.208424 -0.162395
2 4.29608 7.07 -0.0226929
2 -3.99694 7.10343 0.0134875
2 -8.47151 0.0211005 0.076879
2 -4.36656 -7.0733 -0.0630645
2 4.05778 -7.09614 -0.0188475
2 4.26595 -2.48832 6.71538
1 0.20878 4.60158 6.64132
2 -4.11647 -2.24539 6.61083
3 -0.0648428 -4.63818 -6.75032
2 4.15096 2.41256 -6.63867
2 -4.03804 2.46288 -6.59055
3 6.86012 2.24741 0.0456102
2 7.03586 -0.759117 2.13482
2 6.78395 0.828513 -2.22741
2 1.37567 6.9628 -0.0732605
2 2.75437 6.37659 2.04176
2 4.12544 5.51684 -2.239
2 -5.30385 4.79964 -0.135235
2 -2.74124 6.22589 2.23392
3 -4.0879 5.67708 -2.17711
1 -7.00788 -2.19466 -0.0362137
2 -6.91502 -0.83202 2.2057
2 -6.88805 0.845448 -2.19199
2 -1.45051 -7.17343 -0.045084
2 -4.22905 -5.54445 2.17335
2 -2.9287 -6.40182 -2.41755
1 5.48596 -4.76821 0.0054121
2 4.08529 -5.48154 2.30395
2 2.63541 -6.56286 -2.19401
2 2.69427 -0.0392688 6.67275
2 1.44232 -2.35592 6.82948
2 -1.35877 2.25512 6.65366
3 1.47803 -2.27603 -6.70804
2 -1.22393 -2.2792 -6.83508
2 1.52715 2.28375 -6.7387
2 5.53624 4.66768 -0.0418845
2 5.67134 -1.57591 4.50808
2 5.60744 1.62664 -4.49461
2 -1.31803 7.01231 -0.099135
2 1.44262 5.52205 4.47897
1 4.12067 3.89251 -4.44676
2 -6.7194 2.34713 0.0317344
2 -1.25456 5.48501 4.45937
1 -4.29377 4.01368 -4.50064
2 -5.68888 -4.83122 -0.0553622
2 -5.51299 -1.65994 4.45099
2 -5.44933 1.58203 -4.35392
2 1.30245 -7.14999 -0.0727514
2 -4.17011 -3.79868 4.39722
2 -1.32645 -5.66025 -4.6539
2 6.94126 -2.52793 0.0711283
2 4.0418 -3.95762 4.49917
2 1.26722 -5.39558 -4.5206
2 1.55414 2.21186 6.62932
2 -1.1896 -2.28402 6.70459
3 -2.68611 0.0411657 6.87103
2 2.64766 0.0212079 -6.7534
2 -2.80458 -0.00344525 -6.59416
2 -1.36862 2.41111 -6.80731
2 5.41289 3.27316 -2.20603
2 0.00606812 6.19932 2.22884
2 -5.42797 3.29931 -2.31537
2 -5.49437 -3.26326 2.13854
2 -0.163037 -6.52021 -2.33971
2 5.42192 -3.12999 2.2485
2 -0.0451747 0.0335779 6.75704
2 0.0126844 -0.0359978 -6.77292
2 5.61836 1.56666 2.15275
2 1.28367 5.43966 -2.21296
2 -4.15339 3.96603 2.27254
2 -5.62691 -1.51747 -2.17814
2 -1.35118 -5.54903 2.13616
2 3.97191 -4.01143 -2.33874
2 4.07812 0.721018 4.43913
2 1.43862 3.92523 -4.44461
2 -2.73456 2.9742 4.35373
2 -4.40624 -0.854748 -4.36408
2 -1.40136 -3.79091 4.5489
2 2.71065 -3.07524 -4.57032
2 4.26749 3.97005 2.12821
2 -1.43442 5.49053 -2.34372
1 -5.69053 1.68194 2.31211
2 -4.23105 -4.01815 -2.15781
3 1.30893 -5.51484 2.07954
2 5.40991 -1.563 -2.3029
2 2.7599 3.25935 4.4295
2 -1.3775 3.90189 -4.56218
2 -4.1281 0.734109 4.32931
2 -2.67373 -3.1538 -4.50086
1 1.41486 -3.8562 4.42761
2 4.12954 -0.818897 -4.39777
2 11.0393 0.0256453 -0.17698
2 5.47372 9.35395 -0.133663
2 -5.62523 9.5831 0.011366
2 -11.1773 -0.178784 -0.0700645
2 -5.55624 -9.60512 0.0599528
2 5.52315 -9.37025 -0.0240841
2 5.47718 -3.17083 9.00518
2 0.0146186 6.2147 8.87299
2 -5.40395 -3.20468 9.06994
2 0.0609236 -6.3645 -8.92678
2 5.46111 3.30387 -8.79702
2 -5.49964 3.29484 -8.83468
2 9.55015 2.25641 -0.0480152
2 9.61126 -0.711887 1.95847
2 9.48028 0.788507 -2.22226
2 2.91956 9.56346 0.00585687
2 4.03538 8.89005 2.22471
2 5.38755 8.05347 -2.41887
2 -6.95004 7.05118 -0.0944826
2 -4.11543 8.75358 2.16317
2 -5.42266 7.94106 -2.16993
2 -9.6853 -2.46041 -0.0964978
3 -9.57882 -0.876013 2.13503
2 -9.67945 0.837899 -2.19764
2 -2.78027 -9.5685 0.126027
2 -5.43874 -8.0291 2.32365
2 -4.28508 -8.84322 -2.25201
3 6.74672 -7.06255 0.041257
2 5.40896 -7.94073 2.26351
2 4.108 -8.72165 -2.30347
1 4.22008 -0.908764 8.94531
2 2.6765 -3.18864 8.97332
2 -1.20885 3.79644 8.94246
2 1.36519 -3.98385 -8.91394
2 -1.45084 -3.95613 -8.89278
2 2.69055 3.12851 -8.89279
2 8.29395 4.70251 -0.000478413
2 8.33501 -1.40695 4.46048
2 8.14918 1.73421 -4.57437
2 0.0735101 9.46419 0.0172688
2 2.66809 7.96489 4.46689
2 5.53473 6.32957 -4.35093
2 -8.29256 4.64132 -0.0270698
2 -2.89757 7.88384 4.36118
2 -5.5126 6.41653 -4.3468
2 -8.36975 -4.66262 -0.19525
2 -8.30713 -1.46845 4.3514
2 -8.21516 1.66272 -4.38904
2 -0.0221639 -9.51488 -0.0832836
1 -5.28447 -6.34506 4.43107
2 -2.75438 -7.97399 -4.61403
2 8.28066 -4.87129 -0.0147975
2 5.41769 -6.20232 4.48682
2 2.60683 -7.81836 -4.43677
2 2.83408 1.51869 9.01474
3 0.124506 -3.1863 8.95354
2 -2.62117 1.32974 9.02264
2 2.66945 -1.47594 -8.89888
2 -2.67767 -1.44292 -9.08295
2 0.00754398 3.36767 -8.98469
1 6.79103 6.95501 0.00633821
2 7.05109 -2.28655 6.80077
2 6.97111 2.50998 -6.73566
2 -2.73569 9.34762 -0.0883894
2 1.36198 7.02741 6.51479
2 5.47128 4.93631 -6.61978
2 -9.70986 2.33743 -0.0549434
2 -1.43742 7.15648 6.63019
2 -5.58968 4.81346 -6.61723
2 -7.13788 -7.30994 -0.0632496
2 -7.1011 -2.2851 6.62479
2 -6.91753 2.4631 -6.77167
2 2.7966 -9.4701 -0.0872403
1 -5.74395 -4.39227 6.3432
2 -1.33818 -7.17848 -6.79089
1 9.60034 -2.44009 -0.165117
1 5.52279 -4.47632 6.7471
2 1.32989 -7.08681 -6.67104
2 1.57037 3.83288 8.92172
2 -2.6264 -3.2292 8.7441
2 -4.08969 -0.845457 9.02304
2 4.07141 0.836647 -8.91423
2 -3.89456 0.912945 -8.96388
2 -2.64364 3.22346 -8.96579
2 8.21374 3.15162 -2.1232
2 1.36346 8.80847 2.24104
2 -6.87923 5.52958 -2.20484
2 -8.31421 -3.30266 2.10374
2 -1.48507 -8.90858 -2.16354
2 6.93601 -5.59607 2.27562
2 1.52801 -0.871273 9.07906
2 0.0378305 -1.60879 -9.0295
2 6.85675 4.01095 -4.35694
2 -0.166321 8.00811 4.45143
2 -7.01076 4.01529 -4.49113
2 -6.98542 -3.79304 4.31418
2 -0.0249553 -8.13009 -4.54392
2 6.90318 -3.93911 4.52158
2 -1.16662 -0.964624 9.03997
3 -1.21547 1.02788 -9.06687
2 8.33109 1.61749 2.0392
2 2.72982 7.87018 -2.32302
2 -5.58499 6.35503 2.23604
2 -8.44233 -1.59998 -2.19402
2 -2.80485 -7.912 2.23415
2 5.49995 -6.36427 -2.25736
2 7.07892 0.826657 4.48314
2 2.74351 6.30304 -4.55652
2 -4.02619 5.42222 4.41293
2 -7.19744 -0.849506 -4.35381
2 -2.72128 -6.21047 4.40117
2 4.06229 -5.6387 -4.4476
2 5.45974 -0.0518884 6.63766
2 2.64262 4.71381 -6.76431
2 -2.56745 4.7307 6.69582
1 -5.55229 0.156575 -6.37791
1 -2.79781 -4.6984 6.62862
2 2.735 -4.77528 -6.67385
1 6.9027 5.50531 -2.2011
2 -1.26888 8.53838 2.08945
2 -8.17212 3.14841 -2.12731
2 -6.79973 -5.66145 2.18543
2 1.29459 -8.79509 -2.3092
2 8.28319 -3.13956 2.16622
2 0.124712 1.45902 9.06246
2 1.1974 0.809496 -9.00805
2 6.87645 3.89704 2.09608
2 0.0155272 7.88107 -2.34189
2 -6.89453 3.9463 2.21162
3 -6.89638 -3.80316 -2.2375
2 -0.0628136 -8.01874 2.19166
2 6.7502 -4.06651 -2.01724
2 5.49667 3.36782 4.28126
2 0.0569122 6.2634 -4.4802
2 -5.3953 3.09071 4.40201
2 -5.39464 -3.1135 -4.56579
2 -0.0177531 -6.2485 4.32729
2 5.5395 -3.37004 -4.42572
1 4.1386 2.36475 6.81418
2 -0.0249865 4.7767 -6.65157
1 -4.14727 2.47213 6.64613
2 -4.03591 -2.18456 -6.70486
2 0.0911586 -4.8072 6.71208
2 4.09057 -2.29535 -6.55326
2 5.48367 6.45571 2.15143
3 -2.67793 7.70615 -2.20213
2 -8.37066 1.4926 2.31172
2 -5.65314 -6.34895 -2.2609
3 2.74342 -8.12531 2.12051
2 8.10831 -1.65967 -2.39462
2 4.03692 5.67787 4.21548
2 -2.62431 6.37648 -4.45674
2 -6.77565 0.833502 4.54122
2 -4.20642 -5.56475 -4.50901
2 2.69078 -6.26507 4.33913
2 6.79563 -0.713633 -4.5342
2 2.84747 4.8291 6.65887
2 -2.81089 4.72545 -6.65447
2 -5.45291 0.0939938 6.5667
2 -2.68578 -4.71215 -6.6919
2 2.667 -4.8375 6.76085
2 5.60271 -0.0657587 -6.79974
2 13.6902 0.0841776 0.0827668
2 6.90195 11.7773 0.02264
2 -6.78386 11.9052 0.0508107
1 -13.8529 -0.0551235 -0.0211309
3 -7.03519 -11.9572 -0.0355037
2 6.91926 -11.7568 -0.012503
2 6.79474 -3.80911 11.2674
2 -0.0624418 7.95912 11.0436
2 -6.91743 -3.98304 11.1363
2 0.00619882 -7.99002 -11.0902
2 6.80799 4.15476 -11.3421
2 -6.87197 4.01252 -11.1656
3 12.2347 2.40346 -0.0853745
2 12.3039 -0.717066 2.19686
2 12.4675 0.672815 -2.16352
2 4.24278 11.7896 -0.0361033
2 5.51261 11.2218 2.14932
2 6.87263 10.3054 -2.32469
2 -8.28869 9.58499 0.0405151
2 -5.37388 11.0208 2.28633
2 -6.74488 10.3391 -2.18386
2 -12.489 -2.33596 -0.198882
2 -12.4025 -0.939408 2.0731
2 -12.5554 0.809073 -2.34116
2 -4.14296 -11.8494 -0.0859482
1 -6.91459 -10.2679 2.18658
2 -5.49327 -11.3166 -2.16983
2 8.43272 -9.38675 -0.0202926
2 6.94214 -10.2299 2.18531
2 5.59655 -11.2477 -2.2701
2 5.42873 -1.53502 11.2954
3 4.05177 -3.9487 11.124
2 -1.27046 5.55752 11.1247
2 1.56522 -5.42018 -11.0962
2 -1.44346 -5.68939 -11.2165
2 4.01103 3.98412 -11.2346
2 10.9793 4.69823 -0.0737992
2 10.9395 -1.45142 4.31425
2 10.9929 1.41402 -4.39878
2 1.46967 11.965 0.142641
2 4.17303 10.3814 4.49123
3 6.886 8.63318 -4.41288
2 -9.47343 7.13944 0.0338691
2 -4.22086 10.2735 4.45744
2 -6.89847 8.75623 -4.35146
2 -10.9941 -4.74851 -0.153294
2 -10.8917 -1.58144 4.38729
2 -10.9906 1.56935 -4.48816
2 -1.28632 -11.887 0.00811761
1 -6.81333 -8.78049 4.51631
2 -4.20825 -10.4695 -4.4382
3 9.61308 -7.14292 0.0214052
2 6.9089 -8.66361 4.4174
2 3.95664 -10.2519 -4.56105
2 4.107 0.903148 11.3643
2 1.45045 -3.82998 11.2449
2 -2.75722 3.15814 11.1182
2 2.84044 -3.07669 -11.2558
2 -2.69418 -3.17985 -11.2568
2 1.42377 4.09284 -11.1628
2 9.53422 7.04126 -0.0216427
2 9.8881 -2.36207 6.90873
3 9.67482 2.40331 -6.63499
2 -1.33843 11.8546 -0.02723
2 2.63911 9.50035 6.65683
2 6.84034 7.1453 -6.59579
2 -11.0024 4.69221 0.0263995
2 -2.67042 9.47153 6.55493
2 -6.83705 7.20744 -6.64309
3 -9.62792 -7.07648 -0.0204515
1 -9.75695 -2.37794 6.68569
2 -9.69799 2.33827 -6.65283
2 1.38701 -11.8334 -0.116947
2 -6.78263 -7.10004 6.57634
2 -2.651 -9.58417 -6.74571
2 11.1643 -4.79258 -0.0930772
2 6.9085 -6.92641 6.63506
2 2.59045 -9.47962 -6.72223
3 2.73225 3.16015 11.322
2 -1.27715 -3.90063 11.1577
2 -4.10852 0.73671 11.2335
2 4.22839 -0.628482 -11.1147
2 -3.93435 -0.503712 -11.1358
2 -1.23109 4.07326 -11.0916
2 8.13739 9.38964 0.186292
2 8.30554 -3.12208 9.15712
1 8.383 3.15877 -9.13648
2 -4.10187 11.8191 -0.106265
2 1.42635 8.63958 8.92041
2 6.87101 5.5505 -8.95218
2 -12.3977 2.29727 -0.0395487
2 -1.34474 8.50557 8.77019
2 -6.94284 5.6025 -9.03982
2 -8.40389 -9.62125 -0.0430548
2 -8.19732 -3.2092 8.90198
2 -8.14685 3.26651 -8.90714
2 4.10502 -11.802 0.0447034
2 -6.76099 -5.4432 8.90022
2 -1.4181 -8.76356 -8.99071
2 12.3934 -2.48546 -0.0553299
2 7.05967 -5.5217 9.05239
2 1.32949 -8.87186 -8.91416
2 1.39418 5.48863 11.263
1 -4.00909 -4.03055 11.2233
2 -5.43645 -1.49114 11.1432
2 5.42435 1.65568 -11.1933
1 -5.52999 1.62237 -11.2394
2 -4.14511 4.00298 -11.0797
2 10.9606 3.08227 -2.28549
2 2.81323 11.1874 2.30555
2 -8.21894 7.86912 -2.2447
2 -11.0519 -3.08985 2.24027
3 -2.78685 -11.0999 -2.20993
2 8.24527 -7.77901 2.22426
3 2.74418 -1.55944 11.264
2 -0.0707816 -3.24058 -11.1804
3 9.7406 3.78495 -4.44465
2 1.35647 10.3561 4.55551
2 -8.40675 6.29408 -4.51723
3 -9.52489 -3.94339 4.32383
2 -1.507 -10.3354 -4.41503
2 8.49268 -6.19796 4.44337
2 0.0713053 -1.72559 11.27
3 -1.21659 -0.841209 -11.1949
1 8.29516 4.77038 -6.55467
2 -0.0394322 9.42047 6.67066
2 -8.46026 4.73539 -6.75591
2 -8.3212 -4.7199 6.57651
2 -0.0006879 -9.61193 -6.75683
2 8.46132 -4.63628 6.78239
2 -2.69726 -1.53765 11.1558
2 -2.71903 1.66106 -11.2079
3 10.9271 1.53538 1.94381
3 4.13791 10.2844 -2.32393
2 -6.92874 8.79847 2.10768
2 -11.0375 -1.53122 -2.382
2 -3.9451 -10.2286 2.33792
2 6.85539 -8.74154 -2.18108
1 9.74668 0.84655 4.24099
2 4.10769 8.72665 -4.53322
2 -5.66756 8.00096 4.39739
2 -9.74659 -0.674346 -4.53058
2 -4.07049 -8.54551 4.49946
3 5.22465 -7.85239 -4.40219
2 8.17598 0.0142665 6.73139
2 3.93621 7.05994 -6.66807
2 -4.13972 6.91391 6.70817
2 -8.22756 0.145176 -6.53259
2 -4.13911 -7.11139 6.72936
3 3.93078 -7.16421 -6.76944
2 6.84835 -0.816415 9.05474
2 4.06847 5.59504 -9.02245
2 -2.87359 6.20239 8.97068
2 -6.77945 0.863017 -8.91073
2 -4.07678 -5.51089 8.98214
2 2.73051 -6.4362 -8.99565
1 9.64138 5.6257 -2.2836
2 0.0345762 11.1659 2.30405
2 -9.65556 5.53008 -2.35286
1 -9.77579 -5.55671 2.07203
2 -0.00671888 -11.1988 -2.3412
2 9.72233 -5.41954 2.03628
2 1.3881 0.839911 11.1578
2 1.40658 -0.717823 -11.2887
2 8.21905 6.20883 -4.56024
1 -1.44747 10.2304 4.41877
3 -9.65022 3.86337 -4.51038
2 -8.22623 -6.3631 4.42117
2 1.28186 -10.3102 -4.53873
2 9.77753 -3.86175 4.4537
1 -1.31907 0.648607 11.2832
2 0.0506484 1.65398 -11.2329
2 9.75883 3.9002 2.10573
2 1.50832 10.2124 -2.15912
2 -8.41261 6.25459 2.30252
2 -9.55596 -3.96308 -2.42385
3 -1.35201 -10.3301 2.17386
2 8.17593 -6.41704 -1.99644
2 8.37759 3.13663 4.37463
2 1.2934 8.66204 -4.51981
2 -6.99322 5.4793 4.32967
2 -8.34251 -3.1191 -4.48988
2 -1.37937 -8.70584 4.34673
1 6.79012 -5.72598 -4.37005
2 6.72195 2.41693 6.54763
2 1.27184 7.22814 -6.76601
2 -5.57067 4.64349 6.67021
2 -6.78057 -2.23512 -6.70988
2 -1.26223 -7.12782 6.75738
2 5.43615 -4.79642 -6.61355
2 5.54384 1.507 8.88702
2 1.42877 5.64267 -8.99355
2 -4.08439 3.84077 8.86602
2 -5.38617 -1.42307 -8.98913
2 -1.36029 -5.43046 8.81219
2 4.00118 -4.04421 -8.85301
2 8.15364 7.91302 -2.23401
2 -2.61288 11.1499 2.21472
2 -11.0177 3.20127 -2.31978
2 -8.25814 -7.93302 2.31996
2 2.69454 -11.0397 -2.33769
2 10.906 -3.08982 2.05443
2 0.0151502 3.17486 11.095
2 2.69777 1.72983 -11.1141
2 8.20977 6.42039 2.37216
2 -1.3198 10.2138 -2.33168
2 -9.83207 3.88002 2.2432
2 -8.34509 -6.35509 -2.23044
2 1.48899 -10.2113 2.23962
3 9.46597 -4.04434 -2.20533
2 6.87948 5.4013 4.53805
2 -1.29728 8.78282 -4.48811
2 -8.2324 3.20877 4.62175
2 -6.76907 -5.50787 -4.44336
2 1.44778 -8.65768 4.41151
2 8.21952 -3.28291 -4.59457
2 5.54152 4.76868 6.65576
2 -1.36934 7.15035 -6.83072
2 -7.03334 2.40993 6.68269
2 -5.4618 -4.67047 -6.73973
2 1.40868 -7.22869 6.65952
2 6.67544 -2.61524 -6.6694
2 4.1693 3.88392 9.03633
1 -1.26704 5.66217 -8.8508
2 -5.60165 1.54935 8.84728
2 -4.16885 -3.78817 -8.85771
2 1.46025 -5.58462 8.78687
2 5.44553 -1.74911 -8.83813
3 6.64636 8.80329 2.29371
2 -4.14304 10.1203 -2.24726
2 -11.0408 1.43643 2.29879
2 -6.94609 -8.81186 -2.31913
2 4.24452 -10.2284 2.34293
2 10.944 -1.59192 -2.19287
2 5.3154 8.01039 4.4316
2 -4.0913 8.64365 -4.51162
2 -9.86078 0.950313 4.476
2 -5.36107 -8.0852 -4.52486
2 4.12139 -8.62066 4.49262
2 9.50634 -0.783495 -4.34092
3 4.09457 7.18313 6.73953
2 -4.17975 7.10764 -6.64822
2 -8.52775 -0.0137709 6.61392
2 -4.00751 -7.18097 -6.89708
2 4.19172 -6.97777 6.70376
2 8.40135 0.106513 -6.74588
2 2.846 6.33732 9.03238
2 -4.22933 5.63969 -8.93964
2 -6.93892 -0.818462 8.81153
2 -2.6458 -6.4172 -8.95689
2 4.30693 -5.36679 8.91473
1 6.97106 0.874481 -8.83158
3 16.4335 0.0127479 0.243995
2 8.48587 14.1683 -0.14794
2 -8.20576 14.2306 0.257156
2 -16.5456 0.0356664 0.00482972
2 -8.27176 -14.3688 -0.00612843
2 8.21671 -14.3175 0.0411568
2 8.37963 -4.66477 13.4106
2 -0.13198 9.50089 13.4636
1 -8.33407 -4.75663 13.2039
1 0.032731 -9.67198 -13.4544
2 8.20839 4.65286 -13.5071
2 -8.3494 4.81648 -13.4827
2 15.0834 2.38239 0.0901141
1 15.1901 -0.768924 2.31308
2 15.1144 0.544231 -2.20463
1 5.70386 14.3856 -0.000817912
2 6.95001 13.496 2.26895
3 8.24828 12.7461 -2.22815
2 -9.52032 11.9271 0.0149979
2 -6.80741 13.5172 2.24962
2 -8.17951 12.7601 -2.15326
2 -15.2952 -2.36872 -0.0472368
2 -15.116 -0.879671 2.18315
3 -15.1714 0.812259 -2.20753
2 -5.49718 -14.3161 -0.0508546
2 -8.35281 -12.7104 2.14767
1 -6.91006 -13.5929 -2.27858
2 9.63124 -11.9573 0.0851989
2 8.20501 -12.5561 2.35197
2 6.89535 -13.5712 -2.20916
2 7.06153 -2.26597 13.519
2 5.56829 -4.54186 13.3619
2 -1.34114 7.13693 13.3961
2 1.40229 -7.04019 -13.4561
2 -1.33647 -7.1456 -13.4235
2 5.6227 4.80198 -13.4774
2 13.6481 4.68641 -0.0881071
2 13.7708 -1.46588 4.34755
2 13.5905 1.55005 -4.47392
2 2.84532 14.3235 -0.0147033
2 5.43035 12.7247 4.36344
2 8.27456 10.8996 -4.4429
2 -11.0371 9.62806 0.0379742
1 -5.71124 12.6588 4.3913
2 -8.26208 11.1391 -4.40318
2 -13.7688 -4.66689 -0.0742003
2 -13.7658 -1.63763 4.34045
2 -13.823 1.69231 -4.39309
2 -2.71569 -14.2333 0.0636341
2 -8.2567 -11.1655 4.48501
1 -5.42916 -12.8759 -4.47989
2 11.1007 -9.46047 -0.0519465
2 8.24263 -10.8701 4.41803
2 5.3115 -12.7518 -4.54129
1 5.51245 -0.0459636 13.535
2 2.78741 -4.75844 13.5565
2 -2.6621 4.74755 13.3818
2 2.81909 -4.71868 -13.3965
2 -2.86914 -4.81886 -13.5325
2 2.73324 4.81414 -13.4014
2 12.3762 7.10388 -0.0426651
2 12.5318 -2.38089 6.63116
2 12.1836 2.40638 -6.85282
2 -0.0114015 14.2022 0.14282
2 4.03047 11.9871 6.70009
2 8.34926 9.52479 -6.55471
1 -12.4468 7.2723 -0.0162801
2 -4.06908 11.8431 6.79022
2 -8.1974 9.49138 -6.72189
2 -12.4205 -7.11455 -0.181756
2 -12.4486 -2.42731 6.62291
2 -12.3183 2.21783 -6.85218
1 0.0834862 -14.1712 -0.089371
2 -8.30754 -9.58005 6.83606
2 -4.12561 -11.9843 -6.64732
1 12.3347 -7.19616 0.0123394
2 8.36734 -9.5506 6.74023
2 3.92279 -11.9319 -6.73541
2 4.23007 2.34794 13.5326
2 0.143014 -4.73365 13.4893
2 -3.9672 2.44244 13.4791
2 4.17238 -2.16188 -13.33
2 -4.2113 -2.26138 -13.42
2 -0.0640993 4.77827 -13.3015
2 10.9464 9.37733 -0.0533019
2 10.9481 -3.21023 8.97453
2 10.9809 3.21088 -8.96228
2 -2.64573 14.2904 0.0442979
1 2.54899 11.018 8.93562
2 8.21644 7.86199 -8.85187
1 -13.8091 4.92846 0.142408
2 -2.62018 10.893 8.88686
3 -8.37487 8.02736 -9.07428
3 -10.9479 -9.53313 0.152078
2 -10.9201 -3.0568 8.91717
2 -10.9 3.21184 -9.0064
3 2.86737 -14.1578 -0.00702314
2 -8.27358 -7.90249 8.95157
2 -2.728 -11.2067 -9.01205
1 13.7029 -4.81019 -0.0457006
2 8.3641 -7.86556 8.96511
2 2.73971 -11.0961 -9.09849
3 2.71228 4.84771 13.4429
1 -2.55699 -4.90249 13.3618
2 -5.33537 -0.0589178 13.3189
2 5.59619 0.102326 -13.3335
2 -5.34214 0.070892 -13.3923
2 -2.64698 4.73718 -13.2185
2 9.5787 11.7767 0.039414
3 9.53842 -3.94129 11.3318
2 9.71784 3.86144 -11.2618
2 -5.38197 14.2401 -0.020542
2 1.28087 10.1101 11.3217
2 8.29431 6.25353 -11.2344
1 -15.1769 2.24577 0.189492
2 -1.55859 10.1453 11.1089
1 -8.14945 6.50622 -11.2745
2 -9.76116 -11.9263 0.123465
2 -9.78441 -3.99637 11.2015
1 -9.63055 4.02995 -11.1462
2 5.3769 -14.3022 0.00203695
1 -8.32163 -6.49686 11.0041
2 -1.34724 -10.3666 -11.1718
2 15.2325 -2.12522 -0.171441
2 8.31027 -6.27652 11.3145
2 1.43055 -10.5804 -11.1231
2 1.35403 7.11775 13.3303
1 -5.46523 -4.84709 13.3932
2 -6.75187 -2.38589 13.2583
2 6.93559 2.29025 -13.5043
2 -6.94903 2.55238 -13.4277
2 -5.43598 4.75676 -13.3837
2 13.6216 2.99113 -2.29114
2 4.08046 13.5075 2.24286
2 -9.63372 10.3712 -2.11293
3 -13.7683 -3.21494 2.25487
2 -4.01913 -13.6137 -2.21021
2 9.67795 -10.1944 2.1068
2 4.04716 -2.45345 13.4572
2 0.0657225 -4.7658 -13.4253
2 12.3975 3.86964 -4.51278
2 2.67374 12.76 4.51613
2 -9.58153 8.66496 -4.43743
2 -12.3803 -3.91667 4.33887
2 -2.75264 -12.7576 -4.3879
2 9.70655 -8.77378 4.44314
2 1.41655 -2.19957 13.5155
2 -1.40316 -2.41991 -13.4068
2 11.0429 4.69667 -6.7376
2 1.31442 11.9869 6.84998
2 -9.65158 7.08932 -6.77672
2 -10.9437 -4.81514 6.71749
2 -1.26146 -11.8323 -6.67142
2 9.77433 -7.14454 6.578
2 -1.31091 -2.3327 13.4203
2 -2.61741 -0.0737238 -13.4711
2 9.63238 5.59176 -9.18099
2 -0.0888328 11.0385 8.96642
2 -9.68281 5.4846 -8.83344
2 -9.59491 -5.42695 8.84851
2 0.0292085 -11.1501 -8.87158
2 9.56643 -5.50108 9.03259
1 -3.94331 -2.33926 13.3707
2 -3.96093 2.43499 -13.2052
2 13.6451 1.59534 2.27007
2 5.47591 12.7102 -2.13941
2 -8.28002 11.2294 2.36034
2 -13.878 -1.48512 -2.20649
2 -5.50177 -12.5061 2.18718
3 8.16029 -11.0145 -2.19552
3 12.4327 0.841347 4.50194
2 5.54536 11.0331 -4.37069
2 -7.0253 10.421 4.54764
2 -12.4867 -0.652087 -4.52958
1 -5.52732 -11.2884 4.47582
1 6.63312 -10.2325 -4.46819
2 11.0487 0.0260053 6.5516
1 5.48054 9.38903 -6.60503
2 -5.52185 9.47925 6.66361
2 -10.9946 -0.0172887 -6.87858
2 -5.4733 -9.35417 6.67635
2 5.37746 -9.37686 -6.58401
2 9.62621 -0.708295 8.94699
2 5.44321 7.99244 -8.70511
2 -4.20078 8.5742 8.90393
2 -9.3993 0.809861 -9.00248
2 -5.45369 -7.81952 9.00964
2 4.09314 -8.66951 -8.95778
2 8.26199 -1.51223 11.3692
1 5.52723 6.57871 -11.0258
2 -2.6547 8.02371 11.0159
2 -8.10129 1.53369 -11.2614
2 -5.47474 -6.44542 11.2711
2 2.73112 -7.91521 -11.2319
2 12.2408 5.46167 -2.24687
3 1.41681 13.5482 2.38976
2 -10.9723 8.00892 -2.09957
1 -12.3519 -5.38598 2.05006
2 -1.43436 -13.421 -2.10467
2 11.0942 -7.96446 2.33098
2 2.88774 0.0207954 13.5539
2 1.31832 -2.38374 -13.3822
2 10.8674 6.12654 -4.55098
2 -0.00411335 12.6316 4.45883
2 -11.099 6.27484 -4.53434
2 -10.9288 -6.3729 4.47286
2 -0.0459083 -12.7758 -4.42431
2 11.1411 -6.27279 4.32303
1 0.0817867 0.200972 13.4672
2 0.0982636 -0.0428327 -13.4832
2 9.75182 7.21875 -6.7208
2 -1.20312 11.994 6.82204
1 -11.1193 4.82455 -6.85188
2 -9.60961 -7.22182 6.68658
2 1.32659 -11.9308 -6.72155
2 11.1668 -4.73545 6.69956
2 -2.64336 -0.0336879 13.3936
2 -1.25349 2.49946 -13.4084
2 12.2877 3.96127 2.20222
2 2.80888 12.5609 -2.29576
2 -9.5692 8.86301 2.15385
2 -12.3977 -3.87527 -2.17896
2 -2.626 -12.7177 2.26994
2 9.59162 -8.72119 -2.21477
2 10.9845 3.13537 4.40817
2 2.63509 10.8598 -4.55012
3 -8.24811 8.00125 4.33213
2 -11.007 -3.09256 -4.77921
2 -2.7544 -11.022 4.53263
2 8.27762 -7.90457 -4.28793
2 9.60673 2.35389 6.69573
2 2.69359 9.37668 -6.82675
2 -6.87507 7.17821 6.49182
2 -9.46301 -2.30955 -6.80044
2 -2.8211 -9.52626 6.64699
2 6.73631 -7.24513 -6.54161
2 8.23714 1.49068 9.09139
2 2.72133 7.934 -8.99292
2 -5.63135 6.17214 8.89194
2 -8.13927 -1.51182 -9.11597
2 -2.68538 -7.88145 9.00072
2 5.37666 -6.44675 -9.00883
2 6.86381 0.833073 11.2867
2 2.85508 6.47879 -11.2834
2 -4.07929 5.56156 11.1322
1 -6.85819 -0.787847 -11.3232
2 -2.71402 -6.29745 11.1845
2 4.20588 -5.53489 -11.2033
2 11.11 7.79506 -2.29067
2 -1.43871 13.4864 2.2083
2 -12.4426 5.56349 -2.13586
2 -10.9055 -7.87336 2.168
1 1.47935 -13.4093 -2.26314
2 12.4254 -5.52855 2.2218
2 1.5134 2.46647 13.6179
2 2.80292 0.100362 -13.4309
3 9.59784 8.48569 -4.26674
1 -2.75492 12.7321 4.404
2 -12.3327 3.98251 -4.33992
2 -9.6719 -8.71388 4.46528
2 2.7166 -12.8207 -4.55266
2 12.4488 -3.86042 4.46096
2 -1.26164 2.33782 13.2499
3 1.42048 2.28571 -13.4252
2 10.955 6.35169 2.20389
2 0.112825 12.6619 -2.14711
1 -11.057 6.42452 2.2814
2 -11.0988 -6.26815 -2.30511
2 0.150978 -12.6752 2.27845
1 11.0489 -6.33795 -2.26694
2 9.43415 5.4971 4.42649
2 0.0381295 10.975 -4.38683
3 -9.66532 5.44995 4.48639
2 -9.60403 -5.60493 -4.46856
2 -0.0411728 -11.056 4.42317
2 9.68349 -5.71974 -4.25422
2 8.22747 4.69147 6.77489
2 -0.00886032 9.56995 -6.88151
2 -8.27372 4.82031 6.68145
2 -8.22501 -4.83378 -6.71069
2 0.169912 -9.45341 6.56925
1 8.17265 -4.80845 -6.50799
2 6.87507 3.857 8.9063
3 -0.084208 7.94805 -8.99571
2 -6.81485 3.9693 8.87296
2 -6.86604 -3.87904 -9.07743
2 0.150122 -7.8139 8.90444
2 6.81095 -4.04478 -9.03149
2 5.50186 3.17656 11.3073
1 0.015285 6.38526 -11.2514
2 -5.34791 3.11353 11.0919
2 -5.37347 -3.18686 -11.2354
2 0.081224 -6.30682 11.2085
2 5.49619 -3.12053 -11.2382
2 9.56963 10.2825 -2.22345
2 -4.14289 13.352 2.22258
2 -13.8115 3.20566 -2.07687
2 -9.60741 -10.4331 2.37892
2 4.16166 -13.4877 -2.20513
2 13.8458 -3.09725 2.03689
2 -0.0143884 4.75068 13.4469
2 4.01292 2.45835 -13.393
3 9.62916 8.62448 2.43317
2 -2.7831 12.5149 -2.23195
2 -12.4085 3.98371 2.37605
2 -9.73704 -8.69984 -2.2214
2 2.85196 -12.5633 2.16968
2 12.2981 -3.96056 -2.27281
2 8.19267 7.76487 4.43665
2 -2.56472 11.135 -4.56349
2 -11.1043 3.27504 4.50338
2 -8.31026 -7.99589 -4.45011
2 2.95809 -11.133 4.46449
2 10.8637 -3.11447 -4.41993
2 6.72991 7.1192 6.64897
2 -2.74984 9.47964 -6.81108
3 -9.71414 2.58499 6.76904
2 -6.70304 -7.05453 -6.76375
2 2.83075 -9.41131 6.68237
2 9.49742 -2.50588 -6.69772
2 5.42485 6.41037 8.85166
2 -2.74807 7.86764 -8.96637
2 -8.24122 1.75247 8.85891
2 -5.59739 -6.40777 -8.95688
2 2.87674 -8.04457 8.95563
2 8.2248 -1.55277 -8.89687
2 4.04733 5.48978 11.1768
2 -2.98192 6.42417 -11.1912
2 -6.85117 0.808452 11.0377
2 -4.16376 -5.58086 -11.2433
2 2.82196 -6.36308 11.0837
2 6.81208 -0.679336 -11.0871
2 8.04794 10.98 2.25826
2 -5.40107 12.6431 -2.29075
2 -13.7384 1.4337 2.14981
2 -8.29441 -11.2227 -2.31359
2 5.58068 -12.5349 2.24497
3 13.6072 -1.68747 -2.18902
2 6.84037 10.2441 4.49415
2 -5.41447 10.9994 -4.51031
2 -12.4869 0.819357 4.48842
2 -6.89553 -10.4059 -4.49247
2 5.5977 -11.0267 4.47738
3 12.21 -0.914073 -4.34135
2 5.4093 9.46455 6.69407
3 -5.71873 9.50747 -6.65666
1 -11.1046 0.0319195 6.61334
1 -5.47333 -9.60234 -6.73276
2 5.42061 -9.42206 6.72686
2 10.9787 0.00218566 -6.58933
3 3.93718 8.74984 8.88804
1 -5.52649 7.85346 -8.89807
2 -9.6747 -0.825585 8.90417
2 -4.11384 -8.81056 -8.91
2 5.62173 -7.7466 8.92234
2 9.65921 0.847919 -8.94166
2 2.71701 7.88781 11.2946
2 -5.53054 6.43009 -11.0694
2 -8.30623 -1.64024 11.1388
1 -2.78005 -7.95611 -11.0406
2 5.48255 -6.29232 11.2743
2 8.35435 1.62118 -11.2704
2 19.187 -0.154779 0.0642868
2 9.60002 16.6744 -0.233811
2 -9.70049 16.7845 0.0326144
2 -19.2462 0.139748 -0.029725
2 -9.64588 -16.767 0.00590892
2 9.61086 -16.7734 0.0361908
2 9.73282 -5.29442 15.6423
2 -0.0348364 11.103 15.8324
2 -9.56312 -5.61036 15.5736
2 -0.0155194 -11.2374 -15.8666
2 9.83593 5.52343 -15.879
2 -9.61258 5.67082 -15.6697
2 17.9417 2.2714 0.183605
2 17.8573 -0.7305 2.31725
2 17.889 0.773646 -2.18286
2 6.92526 16.7581 -0.0377686
1 8.12941 15.7728 2.01446
2 9.88578 14.8675 -2.30425
2 -11.0996 14.2646 0.0991051
1 -8.26185 16.1186 2.24108
2 -9.60995 15.1623 -2.11719
2 -17.8999 -2.41413 -0.038174
2 -17.806 -0.777858 2.29988
2 -17.9474 0.898489 -2.16445
1 -6.82996 -16.6491 -0.0245804
2 -9.64829 -15.1103 2.23988
2 -8.1807 -15.9887 -2.23322
3 10.8558 -14.2299 0.0487889
2 9.65076 -14.9546 2.28383
2 8.37995 -15.8653 -2.16586
2 8.40335 -2.93916 15.625
2 6.81979 -5.3191 15.907
2 -1.341 8.83918 15.7473
2 1.20484 -8.6949 -15.7381
2 -1.34407 -8.75561 -15.6563
1 6.92327 5.54438 -15.7074
2 16.5236 4.61205 -0.0051277
1 16.436 -1.51796 4.48571
2 16.4175 1.43704 -4.37042
2 4.14978 16.7366 -0.125571
1 6.76544 15.0036 4.35539
2 9.69988 13.4347 -4.49257
3 -12.291 11.877 -0.0379097
2 -7.02036 15.0379 4.43784
2 -9.66176 13.5635 -4.35635
2 -16.5738 -4.65381 -0.0123739
2 -16.6545 -1.72183 4.4841
2 -16.5096 1.73722 -4.44497
3 -4.03079 -16.5629 0.0286334
2 -9.65921 -13.6252 4.41239
2 -6.86869 -15.1318 -4.42413
2 12.1682 -11.7768 0.00712264
2 9.51106 -13.4233 4.4042
2 6.75662 -14.8272 -4.48186
3 6.9582 -0.794981 15.6945
2 4.16561 -5.41581 15.7765
2 -2.68377 6.28884 15.581
2 2.63621 -6.47252 -15.771
2 -2.92667 -6.38032 -15.658
3 4.154 5.56399 -15.6808
2 15.2117 7.10159 0.215996
2 15.1303 -2.21406 6.52934
1 14.8565 2.30987 -6.68303
2 1.41033 16.5654 0.0207756
2 5.35471 14.1948 6.82534
2 9.43026 11.8964 -6.8639
2 -13.6985 9.55326 0.0141879
2 -5.53413 14.1534 6.55877
2 -9.47113 11.9622 -6.62549
2 -15.1983 -7.12048 -0.0430393
2 -15.0548 -2.48041 6.76726
2 -15.1438 2.44707 -6.68847
2 -1.38363 -16.8022 -0.068259
1 -9.47923 -11.9522 6.87326
2 -5.55048 -14.2686 -6.76131
2 13.7954 -9.53938 -0.00293426
2 9.57833 -11.8828 6.64046
2 5.25579 -14.3868 -6.73745
2 5.58237 1.63356 15.6222
2 1.4039 -5.46944 15.5812
2 -3.85849 4.03467 15.6609
2 4.08324 -3.95913 -15.5424
2 -4.09913 -3.84735 -15.6317
2 1.50866 5.5242 -15.5735
2 13.8218 9.52265 0.00817598
2 13.8176 -2.98013 8.81581
2 13.5972 3.18888 -8.96917
2 -1.51655 16.6525 0.0167109
2 3.91102 13.4064 9.17076
2 9.54092 10.249 -8.93113
2 -15.1544 7.11858 -0.0793625
2 -4.09747 13.4791 8.9394
2 -9.48473 10.3916 -9.01959
2 -13.5917 -9.51223 0.0646866
1 -13.6919 -3.31061 8.97363
2 -13.798 3.10144 -9.01374
2 1.25919 -16.6356 0.000680057
2 -9.56032 -10.4283 9.08307
2 -4.12495 -13.5208 -8.92423
2 15.1216 -7.11118 -0.122488
2 9.7748 -10.3295 8.88224
3 3.98911 -13.424 -8.97875
2 4.06373 3.93417 15.6587
2 -1.38055 -5.39797 15.7061
2 -5.28527 1.70138 15.5719
2 5.46852 -1.6354 -15.5838
2 -5.58716 -1.56625 -15.7105
2 -1.27498 5.42376 -15.6743
1 12.294 11.8292 0.111617
2 12.3798 -3.98251 11.2121
1 12.4702 4.00359 -11.3559
2 -4.19331 16.4602 -0.0485737
2 2.65687 12.3802 11.2305
2 9.60419 8.81475 -11.1776
3 -16.5167 4.712 0.177558
2 -2.7276 12.567 11.0096
2 -9.50674 8.85681 -11.1588
2 -12.2234 -11.9056 0.00168854
2 -12.4087 -4.04945 11.4078
2 -12.2206 3.82621 -11.208
1 3.99333 -16.6921 0.012181
2 -9.6587 -8.70944 11.2529
2 -2.62136 -12.8891 -11.3033
2 16.4648 -4.75274 0.0771949
2 9.57542 -8.72131 11.2186
2 2.76198 -12.7563 -11.1986
2 2.72206 6.36342 15.7424
2 -4.2838 -5.56496 15.7513
2 -6.7855 -0.875511 15.5806
2 6.89584 0.720334 -15.7435
2 -6.69662 0.856723 -15.6235
2 -4.06491 5.58747 -15.7126
2 11.0431 14.0702 -0.0131499
3 11.108 -4.7083 13.2957
2 10.9152 4.78809 -13.5856
2 -6.94088 16.7145 0.0910709
2 1.41159 11.9843 13.5854
1 9.77903 7.11211 -13.5551
2 -17.8815 2.44577 0.235306
2 -1.50527 12.0183 13.43
2 -9.64822 7.25424 -13.3576
2 -11.0601 -14.4359 0.0536271
1 -11.0651 -4.72947 13.3997
2 -10.9573 4.82763 -13.5819
2 6.89781 -16.6077 -0.0243356
2 -9.62259 -7.16728 13.3842
2 -1.20513 -12.0257 -13.3892
2 17.973 -2.44062 0.127262
2 9.59718 -6.95247 13.5438
2 1.44776 -11.9465 -13.4638
1 1.45762 8.78805 15.8196
2 -6.8409 -5.63675 15.7689
2 -8.19234 -3.33356 15.4624
2 8.29234 3.08913 -15.7227
1 -8.13928 3.2032 -15.7485
3 -6.83947 5.5755 -15.5831
2 16.4528 3.14679 -2.23702
2 5.29239 15.8292 2.05991