LAMMPS DATA FOR MEAM SIMULATION

   4321   atoms
      3   atom types

  -33.55   33.55   xlo xhi
  -33.55   33.55   ylo yhi
  -33.55   33.55   zlo zhi

 Atoms

     1   3     0.00000    -7.84889   -23.54666
     2   2    -3.92444    -3.92444   -23.54666
     3   2     0.00000    -3.92444   -23.54666
     4   1     3.92444    -3.92444   -23.54666
     5   3    -7.84889     0.00000   -23.54666
     6   3    -3.92444     0.00000   -23.54666
     7   3     0.00000     0.00000   -23.54666
     8   2     3.92444     0.00000   -23.54666
     9   1     7.84889     0.00000   -23.54666
    10   3    -3.92444     3.92444   -23.54666
    11   3     0.00000     3.92444   -23.54666
    12   1     3.92444     3.92444   -23.54666
    13   2     0.00000     7.84889   -23.54666
    14   1    -7.84889   -11.77333   -19.62221
    15   2    -3.92444   -11.77333   -19.62221
    16   3     0.00000   -11.77333   -19.62221
    17   1     3.92444   -11.77333   -19.62221
    18   3     7.84889   -11.77333   -19.62221
    19   2   -11.77333    -7.84889   -19.62221
    20   2    -7.84889    -7.84889   -19.62221
    21   2    -3.92444    -7.84889   -19.62221
    22   1     0.00000    -7.84889   -19.62221
    23   2     3.92444    -7.84889   -19.62221
    24   3     7.84889    -7.84889   -19.62221
    25   1    11.77333    -7.84889   -19.62221
    26   3   -11.77333    -3.92444   -19.62221
    27   2    -7.84889    -3.92444   -19.62221
    28   2    -3.92444    -3.92444   -19.62221
    29   3     0.00000    -3.92444   -19.62221
    30   1     3.92444    -3.92444   -19.62221
    31   2     7.84889    -3.92444   -19.62221
    32   2    11.77333    -3.92444   -19.62221
    33   2   -11.77333     0.00000   -19.62221
    34   3    -7.84889     0.00000   -19.62221
    35   1    -3.92444     0.00000   -19.62221
    36   1     0.00000     0.00000   -19.62221
    37   3     3.92444     0.00000   -19.62221
    38   1     7.84889     0.00000   -19.62221
    39   3    11.77333     0.00000   -19.62221
    40   3   -11.77333     3.92444   -19.62221
    41   3    -7.84889     3.92444   -19.62221
    42   2    -3.92444     3.92444   -19.62221
    43   1     0.00000     3.92444   -19.62221
    44   1     3.92444     3.92444   -19.62221
    45   2     7.84889     3.92444   -19.62221
    46   1    11.77333     3.92444   -19.62221
    47   3   -11.77333     7.84889   -19.62221
    48   2    -7.84889     7.84889   -19.62221
    49   2    -3.92444     7.84889   -19.62221
    50   2     0.00000     7.84889   -19.62221
    51   1     3.92444     7.84889   -19.62221
    52   3     7.84889     7.84889   -19.62221
    53   3    11.77333     7.84889   -19.62221
    54   1    -7.84889    11.77333   -19.62221
    55   3    -3.92444    11.77333   -19.62221
    56   1     0.00000    11.77333   -19.62221
    57   2     3.92444    11.77333   -19.62221
    58   2     7.84889    11.77333   -19.62221
    59   2    -7.84889   -15.69777   -15.69777
    60   2    -3.92444   -15.69777   -15.69777
    61   1     0.00000   -15.69777   -15.69777
    62   3     3.92444   -15.69777   -15.69777
    63   3     7.84889   -15.69777   -15.69777
    64   2   -11.77333   -11.77333   -15.69777
    65   3    -7.84889   -11.77333   -15.69777
    66   1    -3.92444   -11.77333   -15.69777
    67   2     0.00000   -11.77333   -15.69777
    68   3     3.92444   -11.77333   -15.69777
    69   1     7.84889   -11.77333   -15.69777
    70   1    11.77333   -11.77333   -15.69777
    71   3   -15.69777    -7.84889   -15.69777
    72   1   -11.77333    -7.84889   -15.69777
    73   2    -7.84889    -7.84889   -15.69777
    74   3    -3.92444    -7.84889   -15.69777
    75   1     0.00000    -7.84889   -15.69777
    76   2     3.92444    -7.84889   -15.69777
    77   2     7.84889    -7.84889   -15.69777
    78   2    11.77333    -7.84889   -15.69777
    79   1    15.69777    -7.84889   -15.69777
    80   2   -15.69777    -3.92444   -15.69777
    81   2   -11.77333    -3.92444   -15.69777
    82   1    -7.84889    -3.92444   -15.69777
    83   3    -3.92444    -3.92444   -15.69777
    84   3     0.00000    -3.92444   -15.69777
    85   2     3.92444    -3.92444   -15.69777
    86   1     7.84889    -3.92444   -15.69777
    87   2    11.77333    -3.92444   -15.69777
    88   3    15.69777    -3.92444   -15.69777
    89   2   -15.69777     0.00000   -15.69777
    90   3   -11.77333     0.00000   -15.69777
    91   3    -7.84889     0.00000   -15.69777
    92   2    -3.92444     0.00000   -15.69777
    93   3     0.00000     0.00000   -15.69777
    94   3     3.92444     0.00000   -15.69777
    95   1     7.84889     0.00000   -15.69777
    96   3    11.77333     0.00000   -15.69777
    97   3    15.69777     0.00000   -15.69777
    98   2   -15.69777     3.92444   -15.69777
    99   3   -11.77333     3.92444   -15.69777
   100   3    -7.84889     3.92444   -15.69777
   101   2    -3.92444     3.92444   -15.69777
   102   2     0.00000     3.92444   -15.69777
   103   2     3.92444     3.92444   -15.69777
   104   1     7.84889     3.92444   -15.69777
   105   2    11.77333     3.92444   -15.69777
   106   2    15.69777     3.92444   -15.69777
   107   2   -15.69777     7.84889   -15.69777
   108   1   -11.77333     7.84889   -15.69777
   109   2    -7.84889     7.84889   -15.69777
   110   2    -3.92444     7.84889   -15.69777
   111   3     0.00000     7.84889   -15.69777
   112   1     3.92444     7.84889   -15.69777
   113   2     7.84889     7.84889   -15.69777
   114   1    11.77333     7.84889   -15.69777
   115   3    15.69777     7.84889   -15.69777
   116   1   -11.77333    11.77333   -15.69777
   117   2    -7.84889    11.77333   -15.69777
   118   1    -3.92444    11.77333   -15.69777
   119   2     0.00000    11.77333   -15.69777
   120   1     3.92444    11.77333   -15.69777
   121   3     7.84889    11.77333   -15.69777
   122   1    11.77333    11.77333   -15.69777
   123   2    -7.84889    15.69777   -15.69777
   124   2    -3.92444    15.69777   -15.69777
   125   1     0.00000    15.69777   -15.69777
   126   1     3.92444    15.69777   -15.69777
   127   1     7.84889    15.69777   -15.69777
   128   3    -7.84889   -19.62221   -11.77333
   129   2    -3.92444   -19.62221   -11.77333
   130   2     0.00000   -19.62221   -11.77333
   131   3     3.92444   -19.62221   -11.77333
   132   3     7.84889   -19.62221   -11.77333
   133   2   -11.77333   -15.69777   -11.77333
   134   3    -7.84889   -15.69777   -11.77333
   135   1    -3.92444   -15.69777   -11.77333
   136   3     0.00000   -15.69777   -11.77333
   137   2     3.92444   -15.69777   -11.77333
   138   3     7.84889   -15.69777   -11.77333
   139   3    11.77333   -15.69777   -11.77333
   140   2   -15.69777   -11.77333   -11.77333
   141   3   -11.77333   -11.77333   -11.77333
   142   2    -7.84889   -11.77333   -11.77333
   143   3    -3.92444   -11.77333   -11.77333
   144   1     0.00000   -11.77333   -11.77333
   145   2     3.92444   -11.77333   -11.77333
   146   3     7.84889   -11.77333   -11.77333
   147   2    11.77333   -11.77333   -11.77333
   148   3    15.69777   -11.77333   -11.77333
   149   1   -19.62221    -7.84889   -11.77333
   150   1   -15.69777    -7.84889   -11.77333
   151   2   -11.77333    -7.84889   -11.77333
   152   3    -7.84889    -7.84889   -11.77333
   153   3    -3.92444    -7.84889   -11.77333
   154   2     0.00000    -7.84889   -11.77333
   155   1     3.92444    -7.84889   -11.77333
   156   2     7.84889    -7.84889   -11.77333
   157   2    11.77333    -7.84889   -11.77333
   158   2    15.69777    -7.84889   -11.77333
   159   1    19.62221    -7.84889   -11.77333
   160   2   -19.62221    -3.92444   -11.77333
   161   2   -15.69777    -3.92444   -11.77333
   162   2   -11.77333    -3.92444   -11.77333
   163   2    -7.84889    -3.92444   -11.77333
   164   3    -3.92444    -3.92444   -11.77333
   165   2     0.00000    -3.92444   -11.77333
   166   2     3.92444    -3.92444   -11.77333
   167   2     7.84889    -3.92444   -11.77333
   168   2    11.77333    -3.92444   -11.77333
   169   1    15.69777    -3.92444   -11.77333
   170   1    19.62221    -3.92444   -11.77333
   171   2   -19.62221     0.00000   -11.77333
   172   3   -15.69777     0.00000   -11.77333
   173   2   -11.77333     0.00000   -11.77333
   174   2    -7.84889     0.00000   -11.77333
   175   1    -3.92444     0.00000   -11.77333
   176   2     0.00000     0.00000   -11.77333
   177   1     3.92444     0.00000   -11.77333
   178   3     7.84889     0.00000   -11.77333
   179   1    11.77333     0.00000   -11.77333
   180   1    15.69777     0.00000   -11.77333
   181   1    19.62221     0.00000   -11.77333
   182   3   -19.62221     3.92444   -11.77333
   183   2   -15.69777     3.92444   -11.77333
   184   2   -11.77333     3.92444   -11.77333
   185   2    -7.84889     3.92444   -11.77333
   186   2    -3.92444     3.92444   -11.77333
   187   1     0.00000     3.92444   -11.77333
   188   1     3.92444     3.92444   -11.77333
   189   1     7.84889     3.92444   -11.77333
   190   2    11.77333     3.92444   -11.77333
   191   2    15.69777     3.92444   -11.77333
   192   1    19.62221     3.92444   -11.77333
   193   2   -19.62221     7.84889   -11.77333
   194   3   -15.69777     7.84889   -11.77333
   195   1   -11.77333     7.84889   -11.77333
   196   2    -7.84889     7.84889   -11.77333
   197   1    -3.92444     7.84889   -11.77333
   198   3     0.00000     7.84889   -11.77333
   199   3     3.92444     7.84889   -11.77333
   200   2     7.84889     7.84889   -11.77333
   201   2    11.77333     7.84889   -11.77333
   202   1    15.69777     7.84889   -11.77333
   203   2    19.62221     7.84889   -11.77333
   204   1   -15.69777    11.77333   -11.77333
   205   3   -11.77333    11.77333   -11.77333
   206   3    -7.84889    11.77333   -11.77333
   207   2    -3.92444    11.77333   -11.77333
   208   3     0.00000    11.77333   -11.77333
   209   3     3.92444    11.77333   -11.77333
   210   1     7.84889    11.77333   -11.77333
   211   2    11.77333    11.77333   -11.77333
   212   2    15.69777    11.77333   -11.77333
   213   3   -11.77333    15.69777   -11.77333
   214   1    -7.84889    15.69777   -11.77333
   215   2    -3.92444    15.69777   -11.77333
   216   2     0.00000    15.69777   -11.77333
   217   1     3.92444    15.69777   -11.77333
   218   3     7.84889    15.69777   -11.77333
   219   2    11.77333    15.69777   -11.77333
   220   2    -7.84889    19.62221   -11.77333
   221   2    -3.92444    19.62221   -11.77333
   222   2     0.00000    19.62221   -11.77333
   223   3     3.92444    19.62221   -11.77333
   224   1     7.84889    19.62221   -11.77333
   225   2     0.00000   -23.54666    -7.84889
   226   3   -11.77333   -19.62221    -7.84889
   227   2    -7.84889   -19.62221    -7.84889
   228   1    -3.92444   -19.62221    -7.84889
   229   3     0.00000   -19.62221    -7.84889
   230   2     3.92444   -19.62221    -7.84889
   231   2     7.84889   -19.62221    -7.84889
   232   2    11.77333   -19.62221    -7.84889
   233   3   -15.69777   -15.69777    -7.84889
   234   3   -11.77333   -15.69777    -7.84889
   235   1    -7.84889   -15.69777    -7.84889
   236   2    -3.92444   -15.69777    -7.84889
   237   2     0.00000   -15.69777    -7.84889
   238   2     3.92444   -15.69777    -7.84889
   239   1     7.84889   -15.69777    -7.84889
   240   3    11.77333   -15.69777    -7.84889
   241   3    15.69777   -15.69777    -7.84889
   242   3   -19.62221   -11.77333    -7.84889
   243   3   -15.69777   -11.77333    -7.84889
   244   2   -11.77333   -11.77333    -7.84889
   245   1    -7.84889   -11.77333    -7.84889
   246   1    -3.92444   -11.77333    -7.84889
   247   1     0.00000   -11.77333    -7.84889
   248   2     3.92444   -11.77333    -7.84889
   249   2     7.84889   -11.77333    -7.84889
   250   2    11.77333   -11.77333    -7.84889
   251   2    15.69777   -11.77333    -7.84889
   252   2    19.62221   -11.77333    -7.84889
   253   3   -19.62221    -7.84889    -7.84889
   254   2   -15.69777    -7.84889    -7.84889
   255   2   -11.77333    -7.84889    -7.84889
   256   1    -7.84889    -7.84889    -7.84889
   257   1    -3.92444    -7.84889    -7.84889
   258   1     0.00000    -7.84889    -7.84889
   259   1     3.92444    -7.84889    -7.84889
   260   3     7.84889    -7.84889    -7.84889
   261   2    11.77333    -7.84889    -7.84889
   262   3    15.69777    -7.84889    -7.84889
   263   3    19.62221    -7.84889    -7.84889
   264   2   -19.62221    -3.92444    -7.84889
   265   2   -15.69777    -3.92444    -7.84889
   266   2   -11.77333    -3.92444    -7.84889
   267   3    -7.84889    -3.92444    -7.84889
   268   3    -3.92444    -3.92444    -7.84889
   269   1     0.00000    -3.92444    -7.84889
   270   1     3.92444    -3.92444    -7.84889
   271   2     7.84889    -3.92444    -7.84889
   272   3    11.77333    -3.92444    -7.84889
   273   2    15.69777    -3.92444    -7.84889
   274   1    19.62221    -3.92444    -7.84889
   275   3   -23.54666     0.00000    -7.84889
   276   2   -19.62221     0.00000    -7.84889
   277   2   -15.69777     0.00000    -7.84889
   278   1   -11.77333     0.00000    -7.84889
   279   2    -7.84889     0.00000    -7.84889
   280   1    -3.92444     0.00000    -7.84889
   281   2     0.00000     0.00000    -7.84889
   282   2     3.92444     0.00000    -7.84889
   283   1     7.84889     0.00000    -7.84889
   284   3    11.77333     0.00000    -7.84889
   285   1    15.69777     0.00000    -7.84889
   286   3    19.62221     0.00000    -7.84889
   287   2    23.54666     0.00000    -7.84889
   288   2   -19.62221     3.92444    -7.84889
   289   2   -15.69777     3.92444    -7.84889
   290   2   -11.77333     3.92444    -7.84889
   291   2    -7.84889     3.92444    -7.84889
   292   3    -3.92444     3.92444    -7.84889
   293   2     0.00000     3.92444    -7.84889
   294   2     3.92444     3.92444    -7.84889
   295   2     7.84889     3.92444    -7.84889
   296   3    11.77333     3.92444    -7.84889
   297   3    15.69777     3.92444    -7.84889
   298   2    19.62221     3.92444    -7.84889
   299   1   -19.62221     7.84889    -7.84889
   300   3   -15.69777     7.84889    -7.84889
   301   1   -11.77333     7.84889    -7.84889
   302   1    -7.84889     7.84889    -7.84889
   303   2    -3.92444     7.84889    -7.84889
   304   1     0.00000     7.84889    -7.84889
   305   2     3.92444     7.84889    -7.84889
   306   2     7.84889     7.84889    -7.84889
   307   2    11.77333     7.84889    -7.84889
   308   3    15.69777     7.84889    -7.84889
   309   2    19.62221     7.84889    -7.84889
   310   3   -19.62221    11.77333    -7.84889
   311   2   -15.69777    11.77333    -7.84889
   312   2   -11.77333    11.77333    -7.84889
   313   2    -7.84889    11.77333    -7.84889
   314   1    -3.92444    11.77333    -7.84889
   315   3     0.00000    11.77333    -7.84889
   316   2     3.92444    11.77333    -7.84889
   317   1     7.84889    11.77333    -7.84889
   318   3    11.77333    11.77333    -7.84889
   319   2    15.69777    11.77333    -7.84889
   320   2    19.62221    11.77333    -7.84889
   321   3   -15.69777    15.69777    -7.84889
   322   2   -11.77333    15.69777    -7.84889
   323   2    -7.84889    15.69777    -7.84889
   324   2    -3.92444    15.69777    -7.84889
   325   1     0.00000    15.69777    -7.84889
   326   3     3.92444    15.69777    -7.84889
   327   2     7.84889    15.69777    -7.84889
   328   1    11.77333    15.69777    -7.84889
   329   3    15.69777    15.69777    -7.84889
   330   1   -11.77333    19.62221    -7.84889
   331   3    -7.84889    19.62221    -7.84889
   332   2    -3.92444    19.62221    -7.84889
   333   2     0.00000    19.62221    -7.84889
   334   1     3.92444    19.62221    -7.84889
   335   2     7.84889    19.62221    -7.84889
   336   1    11.77333    19.62221    -7.84889
   337   3     0.00000    23.54666    -7.84889
   338   3    -3.92444   -23.54666    -3.92444
   339   1     0.00000   -23.54666    -3.92444
   340   3     3.92444   -23.54666    -3.92444
   341   3   -11.77333   -19.62221    -3.92444
   342   2    -7.84889   -19.62221    -3.92444
   343   2    -3.92444   -19.62221    -3.92444
   344   2     0.00000   -19.62221    -3.92444
   345   2     3.92444   -19.62221    -3.92444
   346   2     7.84889   -19.62221    -3.92444
   347   2    11.77333   -19.62221    -3.92444
   348   2   -15.69777   -15.69777    -3.92444
   349   1   -11.77333   -15.69777    -3.92444
   350   1    -7.84889   -15.69777    -3.92444
   351   2    -3.92444   -15.69777    -3.92444
   352   3     0.00000   -15.69777    -3.92444
   353   2     3.92444   -15.69777    -3.92444
   354   3     7.84889   -15.69777    -3.92444
   355   2    11.77333   -15.69777    -3.92444
   356   2    15.69777   -15.69777    -3.92444
   357   3   -19.62221   -11.77333    -3.92444
   358   3   -15.69777   -11.77333    -3.92444
   359   1   -11.77333   -11.77333    -3.92444
   360   1    -7.84889   -11.77333    -3.92444
   361   2    -3.92444   -11.77333    -3.92444
   362   2     0.00000   -11.77333    -3.92444
   363   2     3.92444   -11.77333    -3.92444
   364   1     7.84889   -11.77333    -3.92444
   365   3    11.77333   -11.77333    -3.92444
   366   2    15.69777   -11.77333    -3.92444
   367   3    19.62221   -11.77333    -3.92444
   368   1   -19.62221    -7.84889    -3.92444
   369   2   -15.69777    -7.84889    -3.92444
   370   1   -11.77333    -7.84889    -3.92444
   371   1    -7.84889    -7.84889    -3.92444
   372   3    -3.92444    -7.84889    -3.92444
   373   1     0.00000    -7.84889    -3.92444
   374   3     3.92444    -7.84889    -3.92444
   375   1     7.84889    -7.84889    -3.92444
   376   3    11.77333    -7.84889    -3.92444
   377   3    15.69777    -7.84889    -3.92444
   378   3    19.62221    -7.84889    -3.92444
   379   3   -23.54666    -3.92444    -3.92444
   380   3   -19.62221    -3.92444    -3.92444
   381   2   -15.69777    -3.92444    -3.92444
   382   2   -11.77333    -3.92444    -3.92444
   383   2    -7.84889    -3.92444    -3.92444
   384   3    -3.92444    -3.92444    -3.92444
   385   2     0.00000    -3.92444    -3.92444
   386   1     3.92444    -3.92444    -3.92444
   387   2     7.84889    -3.92444    -3.92444
   388   1    11.77333    -3.92444    -3.92444
   389   2    15.69777    -3.92444    -3.92444
   390   2    19.62221    -3.92444    -3.92444
   391   2    23.54666    -3.92444    -3.92444
   392   3   -23.54666     0.00000    -3.92444
   393   1   -19.62221     0.00000    -3.92444
   394   2   -15.69777     0.00000    -3.92444
   395   3   -11.77333     0.00000    -3.92444
   396   1    -7.84889     0.00000    -3.92444
   397   2    -3.92444     0.00000    -3.92444
   398   3     0.00000     0.00000    -3.92444
   399   3     3.92444     0.00000    -3.92444
   400   3     7.84889     0.00000    -3.92444
   401   2    11.77333     0.00000    -3.92444
   402   2    15.69777     0.00000    -3.92444
   403   3    19.62221     0.00000    -3.92444
   404   1    23.54666     0.00000    -3.92444
   405   3   -23.54666     3.92444    -3.92444
   406   2   -19.62221     3.92444    -3.92444
   407   3   -15.69777     3.92444    -3.92444
   408   3   -11.77333     3.92444    -3.92444
   409   3    -7.84889     3.92444    -3.92444
   410   2    -3.92444     3.92444    -3.92444
   411   2     0.00000     3.92444    -3.92444
   412   2     3.92444     3.92444    -3.92444
   413   1     7.84889     3.92444    -3.92444
   414   2    11.77333     3.92444    -3.92444
   415   2    15.69777     3.92444    -3.92444
   416   1    19.62221     3.92444    -3.92444
   417   2    23.54666     3.92444    -3.92444
   418   2   -19.62221     7.84889    -3.92444
   419   1   -15.69777     7.84889    -3.92444
   420   2   -11.77333     7.84889    -3.92444
   421   2    -7.84889     7.84889    -3.92444
   422   2    -3.92444     7.84889    -3.92444
   423   2     0.00000     7.84889    -3.92444
   424   2     3.92444     7.84889    -3.92444
   425   2     7.84889     7.84889    -3.92444
   426   1    11.77333     7.84889    -3.92444
   427   3    15.69777     7.84889    -3.92444
   428   1    19.62221     7.84889    -3.92444
   429   2   -19.62221    11.77333    -3.92444
   430   1   -15.69777    11.77333    -3.92444
   431   1   -11.77333    11.77333    -3.92444
   432   1    -7.84889    11.77333    -3.92444
   433   1    -3.92444    11.77333    -3.92444
   434   3     0.00000    11.77333    -3.92444
   435   1     3.92444    11.77333    -3.92444
   436   3     7.84889    11.77333    -3.92444
   437   3    11.77333    11.77333    -3.92444
   438   2    15.69777    11.77333    -3.92444
   439   1    19.62221    11.77333    -3.92444
   440   2   -15.69777    15.69777    -3.92444
   441   3   -11.77333    15.69777    -3.92444
   442   3    -7.84889    15.69777    -3.92444
   443   3    -3.92444    15.69777    -3.92444
   444   2     0.00000    15.69777    -3.92444
   445   3     3.92444    15.69777    -3.92444
   446   2     7.84889    15.69777    -3.92444
   447   3    11.77333    15.69777    -3.92444
   448   2    15.69777    15.69777    -3.92444
   449   1   -11.77333    19.62221    -3.92444
   450   1    -7.84889    19.62221    -3.92444
   451   3    -3.92444    19.62221    -3.92444
   452   1     0.00000    19.62221    -3.92444
   453   2     3.92444    19.62221    -3.92444
   454   3     7.84889    19.62221    -3.92444
   455   3    11.77333    19.62221    -3.92444
   456   2    -3.92444    23.54666    -3.92444
   457   2     0.00000    23.54666    -3.92444
   458   2     3.92444    23.54666    -3.92444
   459   2    -7.84889   -23.54666     0.00000
   460   1    -3.92444   -23.54666     0.00000
   461   1     0.00000   -23.54666     0.00000
   462   3     3.92444   -23.54666     0.00000
   463   3     7.84889   -23.54666     0.00000
   464   3   -11.77333   -19.62221     0.00000
   465   2    -7.84889   -19.62221     0.00000
   466   1    -3.92444   -19.62221     0.00000
   467   2     0.00000   -19.62221     0.00000
   468   2     3.92444   -19.62221     0.00000
   469   2     7.84889   -19.62221     0.00000
   470   2    11.77333   -19.62221     0.00000
   471   1   -15.69777   -15.69777     0.00000
   472   1   -11.77333   -15.69777     0.00000
   473   2    -7.84889   -15.69777     0.00000
   474   3    -3.92444   -15.69777     0.00000
   475   3     0.00000   -15.69777     0.00000
   476   2     3.92444   -15.69777     0.00000
   477   1     7.84889   -15.69777     0.00000
   478   1    11.77333   -15.69777     0.00000
   479   2    15.69777   -15.69777     0.00000
   480   2   -19.62221   -11.77333     0.00000
   481   2   -15.69777   -11.77333     0.00000
   482   2   -11.77333   -11.77333     0.00000
   483   2    -7.84889   -11.77333     0.00000
   484   1    -3.92444   -11.77333     0.00000
   485   1     0.00000   -11.77333     0.00000
   486   2     3.92444   -11.77333     0.00000
   487   2     7.84889   -11.77333     0.00000
   488   2    11.77333   -11.77333     0.00000
   489   1    15.69777   -11.77333     0.00000
   490   3    19.62221   -11.77333     0.00000
   491   2   -23.54666    -7.84889     0.00000
   492   3   -19.62221    -7.84889     0.00000
   493   2   -15.69777    -7.84889     0.00000
   494   2   -11.77333    -7.84889     0.00000
   495   2    -7.84889    -7.84889     0.00000
   496   3    -3.92444    -7.84889     0.00000
   497   1     0.00000    -7.84889     0.00000
   498   2     3.92444    -7.84889     0.00000
   499   2     7.84889    -7.84889     0.00000
   500   2    11.77333    -7.84889     0.00000
   501   2    15.69777    -7.84889     0.00000
   502   2    19.62221    -7.84889     0.00000
   503   3    23.54666    -7.84889     0.00000
   504   2   -23.54666    -3.92444     0.00000
   505   2   -19.62221    -3.92444     0.00000
   506   2   -15.69777    -3.92444     0.00000
   507   2   -11.77333    -3.92444     0.00000
   508   2    -7.84889    -3.92444     0.00000
   509   3    -3.92444    -3.92444     0.00000
   510   2     0.00000    -3.92444     0.00000
   511   3     3.92444    -3.92444     0.00000
   512   2     7.84889    -3.92444     0.00000
   513   1    11.77333    -3.92444     0.00000
   514   2    15.69777    -3.92444     0.00000
   515   2    19.62221    -3.92444     0.00000
   516   3    23.54666    -3.92444     0.00000
   517   1   -23.54666     0.00000     0.00000
   518   1   -19.62221     0.00000     0.00000
   519   2   -15.69777     0.00000     0.00000
   520   3   -11.77333     0.00000     0.00000
   521   1    -7.84889     0.00000     0.00000
   522   2    -3.92444     0.00000     0.00000
   523   2     0.00000     0.00000     0.00000
   524   2     3.92444     0.00000     0.00000
   525   2     7.84889     0.00000     0.00000
   526   2    11.77333     0.00000     0.00000
   527   1    15.69777     0.00000     0.00000
   528   2    19.62221     0.00000     0.00000
   529   2    23.54666     0.00000     0.00000
   530   2   -23.54666     3.92444     0.00000
   531   2   -19.62221     3.92444     0.00000
   532   3   -15.69777     3.92444     0.00000
   533   2   -11.77333     3.92444     0.00000
   534   2    -7.84889     3.92444     0.00000
   535   2    -3.92444     3.92444     0.00000
   536   2     0.00000     3.92444     0.00000
   537   1     3.92444     3.92444     0.00000
   538   2     7.84889     3.92444     0.00000
   539   2    11.77333     3.92444     0.00000
   540   1    15.69777     3.92444     0.00000
   541   1    19.62221     3.92444     0.00000
   542   2    23.54666     3.92444     0.00000
   543   2   -23.54666     7.84889     0.00000
   544   1   -19.62221     7.84889     0.00000
   545   3   -15.69777     7.84889     0.00000
   546   2   -11.77333     7.84889     0.00000
   547   3    -7.84889     7.84889     0.00000
   548   2    -3.92444     7.84889     0.00000
   549   3     0.00000     7.84889     0.00000
   550   2     3.92444     7.84889     0.00000
   551   1     7.84889     7.84889     0.00000
   552   2    11.77333     7.84889     0.00000
   553   1    15.69777     7.84889     0.00000
   554   2    19.62221     7.84889     0.00000
   555   2    23.54666     7.84889     0.00000
   556   2   -19.62221    11.77333     0.00000
   557   2   -15.69777    11.77333     0.00000
   558   3   -11.77333    11.77333     0.00000
   559   1    -7.84889    11.77333     0.00000
   560   2    -3.92444    11.77333     0.00000
   561   3     0.00000    11.77333     0.00000
   562   3     3.92444    11.77333     0.00000
   563   2     7.84889    11.77333     0.00000
   564   3    11.77333    11.77333     0.00000
   565   1    15.69777    11.77333     0.00000
   566   2    19.62221    11.77333     0.00000
   567   2   -15.69777    15.69777     0.00000
   568   1   -11.77333    15.69777     0.00000
   569   2    -7.84889    15.69777     0.00000
   570   2    -3.92444    15.69777     0.00000
   571   3     0.00000    15.69777     0.00000
   572   3     3.92444    15.69777     0.00000
   573   1     7.84889    15.69777     0.00000
   574   2    11.77333    15.69777     0.00000
   575   2    15.69777    15.69777     0.00000
   576   1   -11.77333    19.62221     0.00000
   577   2    -7.84889    19.62221     0.00000
   578   3    -3.92444    19.62221     0.00000
   579   1     0.00000    19.62221     0.00000
   580   3     3.92444    19.62221     0.00000
   581   2     7.84889    19.62221     0.00000
   582   3    11.77333    19.62221     0.00000
   583   2    -7.84889    23.54666     0.00000
   584   1    -3.92444    23.54666     0.00000
   585   3     0.00000    23.54666     0.00000
   586   2     3.92444    23.54666     0.00000
   587   1     7.84889    23.54666     0.00000
   588   2    -3.92444   -23.54666     3.92444
   589   1     0.00000   -23.54666     3.92444
   590   3     3.92444   -23.54666     3.92444
   591   2   -11.77333   -19.62221     3.92444
   592   3    -7.84889   -19.62221     3.92444
   593   3    -3.92444   -19.62221     3.92444
   594   3     0.00000   -19.62221     3.92444
   595   3     3.92444   -19.62221     3.92444
   596   2     7.84889   -19.62221     3.92444
   597   3    11.77333   -19.62221     3.92444
   598   3   -15.69777   -15.69777     3.92444
   599   1   -11.77333   -15.69777     3.92444
   600   3    -7.84889   -15.69777     3.92444
   601   1    -3.92444   -15.69777     3.92444
   602   1     0.00000   -15.69777     3.92444
   603   3     3.92444   -15.69777     3.92444
   604   2     7.84889   -15.69777     3.92444
   605   1    11.77333   -15.69777     3.92444
   606   2    15.69777   -15.69777     3.92444
   607   1   -19.62221   -11.77333     3.92444
   608   1   -15.69777   -11.77333     3.92444
   609   2   -11.77333   -11.77333     3.92444
   610   1    -7.84889   -11.77333     3.92444
   611   2    -3.92444   -11.77333     3.92444
   612   3     0.00000   -11.77333     3.92444
   613   2     3.92444   -11.77333     3.92444
   614   2     7.84889   -11.77333     3.92444
   615   2    11.77333   -11.77333     3.92444
   616   1    15.69777   -11.77333     3.92444
   617   3    19.62221   -11.77333     3.92444
   618   2   -19.62221    -7.84889     3.92444
   619   3   -15.69777    -7.84889     3.92444
   620   2   -11.77333    -7.84889     3.92444
   621   1    -7.84889    -7.84889     3.92444
   622   2    -3.92444    -7.84889     3.92444
   623   1     0.00000    -7.84889     3.92444
   624   2     3.92444    -7.84889     3.92444
   625   1     7.84889    -7.84889     3.92444
   626   2    11.77333    -7.84889     3.92444
   627   3    15.69777    -7.84889     3.92444
   628   2    19.62221    -7.84889     3.92444
   629   1   -23.54666    -3.92444     3.92444
   630   1   -19.62221    -3.92444     3.92444
   631   2   -15.69777    -3.92444     3.92444
   632   2   -11.77333    -3.92444     3.92444
   633   2    -7.84889    -3.92444     3.92444
   634   2    -3.92444    -3.92444     3.92444