4321
 Atoms. Timestep: 4193
3 0.0814749 -7.63174 -22.9253
2 -3.72899 -4.1718 -22.7439
2 0.160745 -4.01718 -23.0046
1 3.91951 -3.99399 -22.7812
3 -7.20041 0.124764 -22.6421
3 -3.78543 -0.215539 -22.7229
3 0.28147 -0.25306 -22.8952
2 3.93845 -0.272492 -22.6594
1 7.63829 -0.0534541 -22.489
3 -3.69338 3.69402 -22.7611
3 0.302227 3.61055 -22.7905
1 4.04512 3.63043 -22.6932
2 0.249236 7.37394 -22.7497
1 -8.16439 -11.7922 -19.2497
2 -3.69652 -11.3982 -19.0463
3 0.340408 -11.4039 -19.3044
1 4.14965 -11.6281 -19.0015
3 7.9247 -11.4672 -18.812
2 -11.4304 -7.63691 -19.1469
2 -7.60587 -7.5829 -19.0918
2 -3.50287 -7.71787 -19.142
1 0.24487 -7.72414 -19.1814
2 4.03495 -7.75935 -19.0433
3 7.87927 -7.65397 -19.0671
1 11.6514 -7.90825 -18.7381
3 -11.3985 -3.79552 -19.0075
2 -7.48303 -3.84057 -19.0765
2 -3.67518 -3.86919 -19.0482
3 0.163926 -3.99104 -19.0594
1 3.87137 -3.92847 -19.0012
2 7.88452 -4.09412 -19.2564
2 11.6718 -3.93279 -19.0685
2 -11.2591 -0.183561 -18.9422
3 -7.38421 -0.0551986 -19.0602
1 -3.69033 -0.135616 -19.2054
1 0.202221 -0.110521 -19.0729
3 3.82918 -0.183614 -19.0677
1 7.74891 -0.0886215 -19.2783
3 11.7605 0.0122744 -19.0172
3 -11.2392 3.66025 -19.0938
3 -7.36091 3.68 -19.1291
2 -3.59023 3.63423 -19.2226
1 0.22578 3.58023 -19.1179
1 3.97746 3.67399 -19.1178
2 7.77826 3.65632 -19.0739
1 12.0606 4.07575 -19.2339
3 -11.1709 7.57667 -19.0216
2 -7.46627 7.56846 -19.1273
2 -3.59038 7.46398 -19.1504
2 0.11933 7.32742 -19.0143
1 4.0511 7.52978 -18.9962
3 7.74493 7.53601 -18.9629
3 11.4248 7.61067 -18.6994
1 -7.52582 11.3028 -19.0659
3 -3.67271 11.2439 -19.003
1 0.117852 11.6168 -19.9251
2 4.23955 11.2105 -19.0408
2 7.72638 11.2763 -18.9723
2 -7.6791 -15.0906 -15.1981
2 -3.76477 -15.38 -15.4996
1 0.101462 -15.0778 -15.2437
3 3.94163 -15.2514 -15.281
3 7.69983 -15.1837 -15.1099
2 -11.5215 -11.2099 -15.1945
3 -7.7522 -11.2926 -15.2378
1 -3.84686 -11.3177 -15.3216
2 -0.0247969 -11.4513 -15.2952
3 3.99678 -11.5645 -15.2867
1 7.90321 -11.4142 -15.1871
1 11.6932 -11.5997 -15.1614
3 -15.2921 -7.59751 -15.1656
1 -11.4994 -7.5356 -15.3202
2 -7.47181 -7.58866 -15.3854
3 -3.78215 -7.74754 -15.3196
1 0.165711 -7.71633 -15.3182
2 4.04258 -7.73619 -15.2241
2 7.78613 -7.7421 -15.2178
2 11.706 -7.54594 -15.0719
1 15.3909 -7.99621 -15.2613
2 -15.346 -3.72189 -15.3442
2 -11.4301 -3.82019 -15.2337
1 -7.47943 -3.9058 -15.2122
3 -3.65656 -3.83347 -15.2751
3 0.166219 -3.93451 -15.2043
2 3.91118 -3.92043 -15.2664
1 7.80438 -3.89082 -15.3624
2 11.5879 -3.87334 -15.2704
3 15.3274 -4.09183 -15.164
2 -14.9832 0.130261 -15.2401
3 -11.1778 -0.0395008 -15.373
3 -7.45365 -0.163111 -15.2055
2 -3.76316 -0.186573 -15.1826
3 0.16331 -0.128654 -15.2781
3 3.92018 -0.141903 -15.2141
1 7.71586 -0.203989 -15.3994
3 11.6066 -0.0665905 -15.1787
3 15.4211 -0.185642 -15.252
2 -15.1441 3.77988 -15.3272
3 -11.1986 3.73846 -15.2614
3 -7.41934 3.64008 -15.3664
2 -3.73385 3.65027 -15.2955
2 0.073189 3.58616 -15.2349
2 3.87751 3.58918 -15.2741
1 7.59022 3.62861 -15.4639
2 11.6276 3.68555 -15.4203
2 15.3342 3.84068 -15.2227
2 -15.2142 7.79688 -15.4397
1 -11.283 7.54991 -15.2909
2 -7.48343 7.55187 -15.2938
2 -3.73545 7.49909 -15.3387
3 0.0395838 7.48601 -15.3543
1 3.94304 7.57065 -15.1361
2 7.79649 7.44957 -15.1499
1 11.5551 7.41684 -15.1712
3 14.9513 7.53228 -14.9374
1 -11.3497 11.4045 -15.5748
2 -7.57426 11.2945 -15.4278
1 -3.89006 11.3055 -15.2416
2 0.0481135 11.2711 -15.1711
1 3.9158 11.2486 -15.1194
3 7.50027 11.384 -15.0423
1 11.7788 11.8249 -15.5836
2 -7.72425 15.15 -15.1758
2 -4.0056 15.2604 -15.4089
1 -0.0740549 14.627 -15.3867
1 3.86681 15.0827 -15.3121
1 7.76666 14.8927 -15.1765
3 -7.76881 -18.8218 -11.1881
2 -4.07146 -19.068 -11.5635
2 -0.112941 -19.0074 -11.5234
3 3.78896 -18.8375 -11.6022
3 7.77276 -18.9928 -11.4681
2 -11.4946 -15.2085 -11.5311
3 -7.71451 -15.0648 -11.4812
1 -3.99267 -15.0967 -11.6358
3 0.0459799 -15.2984 -11.5852
2 3.90261 -15.2494 -11.5318
3 7.75056 -15.2485 -11.3231
3 11.4646 -15.3 -11.5299
2 -15.3573 -11.3476 -11.5601
3 -11.4787 -11.3163 -11.5728
2 -7.77865 -11.2312 -11.6761
3 -3.89156 -11.4286 -11.5593
1 -0.0209918 -11.2882 -11.4706
2 3.81879 -11.6265 -11.3463
3 7.81256 -11.5117 -11.4748
2 11.6457 -11.4812 -11.5629
3 15.3495 -11.5225 -11.4495
1 -18.9443 -7.49549 -11.4363
1 -15.3541 -7.54537 -11.465
2 -11.4948 -7.55551 -11.4555
3 -7.52694 -7.65107 -11.5909
3 -3.72558 -7.62461 -11.5175
2 0.0854498 -7.76329 -11.5184
1 4.01279 -7.58839 -11.3611
2 7.82712 -7.70841 -11.3059
2 11.5863 -7.65999 -11.4294
2 15.3615 -7.81139 -11.4039
1 19.1876 -7.68833 -11.4514
2 -18.8692 -3.57594 -11.4985
2 -15.22 -3.65558 -11.3495
2 -11.3224 -3.78809 -11.5949
2 -7.43912 -3.82988 -11.4335
3 -3.65893 -3.94188 -11.5135
2 0.068841 -3.97097 -11.4544
2 3.86707 -4.06067 -11.4273
2 7.79787 -3.93337 -11.5578
2 11.5562 -3.94985 -11.399
1 15.4026 -3.8526 -11.4933
1 19.193 -3.92395 -11.4851
2 -19.0821 0.129494 -11.4869
3 -15.2336 -0.028865 -11.5142
2 -11.3439 -0.110195 -11.5109
2 -7.47942 -0.0678896 -11.4551
1 -3.725 -0.185217 -11.5177
2 0.128658 -0.239997 -11.4846
1 3.82594 -0.223643 -11.3177
3 7.7426 -0.140934 -11.4979
1 11.5662 -0.117766 -11.5045
1 15.3063 -0.0113617 -11.4764
1 19.1909 -0.0304469 -11.4525
3 -18.8819 3.93706 -11.5528
2 -15.0487 3.77323 -11.3509
2 -11.2791 3.59765 -11.5038
2 -7.5458 3.67314 -11.4804
2 -3.68684 3.51976 -11.4544
1 0.0125572 3.59144 -11.4547
1 3.94985 3.60932 -11.5212
1 7.62685 3.5511 -11.4811
2 11.5056 3.6597 -11.4952
2 15.3389 3.63006 -11.4066
1 19.1087 3.88006 -11.4348
2 -18.7787 7.78232 -11.4714
3 -15.025 7.6293 -11.4582
1 -11.3101 7.55137 -11.495
2 -7.51368 7.71509 -11.4722
1 -3.71382 7.51891 -11.4319
3 0.00855628 7.4655 -11.3972
3 3.89365 7.46738 -11.4055
2 7.64965 7.44828 -11.3987
2 11.4011 7.42847 -11.3678
1 15.1893 7.46386 -11.3892
2 18.7896 7.55112 -11.434
1 -15.0609 11.6185 -11.5964
3 -11.3323 11.2588 -11.5564
3 -7.75051 11.3945 -11.5284
2 -3.76073 11.1932 -11.4421
3 0.034087 11.239 -11.5624
3 3.79051 11.2388 -11.3377
1 7.54899 11.2525 -11.3539
2 11.4121 11.3799 -11.3952
2 15.2132 11.7344 -11.7152
3 -11.4729 15.1581 -11.4585
1 -7.62782 15.1083 -11.3341
2 -3.84654 15.0259 -11.44
2 0.0336914 15.0534 -11.4774
1 3.74981 15.1768 -11.4499
3 7.43243 15.0236 -11.4923
2 11.3696 15.0968 -11.2982
2 -7.80062 18.724 -11.3351
2 -4.02803 19.1592 -11.5846
2 0.0360836 18.9676 -11.6196
3 3.77009 18.7418 -11.443
1 7.67303 18.6707 -11.5484
2 0.227476 -22.8199 -7.61215
3 -11.5359 -18.848 -7.83533
2 -7.68312 -18.7668 -7.79353
1 -3.93785 -18.9913 -7.70138
3 -0.189339 -18.9439 -7.72519
2 3.81262 -19.1258 -7.68625
2 7.88638 -19.0631 -7.73538
2 11.5827 -19.0045 -7.66043
3 -15.2901 -14.9376 -7.75038
3 -11.4859 -15.1031 -7.61176
1 -7.76306 -15.1825 -7.84277
2 -3.96129 -15.2133 -7.77412
2 -0.01263 -15.2445 -7.79856
2 3.77263 -15.3025 -7.72325
1 7.85944 -15.2981 -7.72401
3 11.4993 -15.229 -7.73742
3 15.3592 -15.0752 -7.70955
3 -18.9006 -11.2905 -7.65778
3 -15.2402 -11.3431 -7.58986
2 -11.6598 -11.2401 -7.63902
1 -7.73711 -11.3496 -7.69162
1 -3.85434 -11.375 -7.81865
1 -0.0707867 -11.5378 -7.58313
2 4.04369 -11.4261 -7.64709
2 7.89082 -11.4153 -7.62767
2 11.545 -11.5424 -7.6727
2 15.4306 -11.4602 -7.65075
2 19.1329 -11.3023 -7.71766
3 -18.9757 -7.30996 -7.6277
2 -15.2845 -7.50982 -7.53244
2 -11.5445 -7.48226 -7.57463
1 -7.603 -7.54729 -7.67591
1 -3.78572 -7.63451 -7.5957
1 -0.201908 -7.67278 -7.56714
1 3.88124 -7.65558 -7.57832
3 7.73041 -7.77201 -7.6274
2 11.5599 -7.6196 -7.55265
3 15.4134 -7.65569 -7.70199
3 19.3825 -7.62647 -7.73552
2 -19.0779 -3.6383 -7.56521
2 -15.3053 -3.72641 -7.46526
2 -11.4503 -3.8055 -7.59602
3 -7.58047 -3.7466 -7.53031
3 -3.78527 -3.9668 -7.62343
1 -0.116241 -3.8902 -7.56795
1 3.86304 -3.98659 -7.41284
2 7.77911 -3.93781 -7.67333
3 11.625 -3.91068 -7.59124
2 15.3895 -3.82938 -7.49307
1 19.2827 -3.86474 -7.68399
3 -22.724 0.128955 -7.39636
2 -19.2362 -0.0310683 -7.51214
2 -15.1842 -0.0612289 -7.48234
1 -11.3683 -0.0199077 -7.65874
2 -7.64482 -0.0537845 -7.6581
1 -3.74747 -0.107155 -7.6186
2 0.00232816 -0.204462 -7.56253
2 4.05716 -0.243397 -7.60164
1 7.73069 -0.176595 -7.70164
3 11.5263 -0.14413 -7.62858
1 15.4266 0.0149895 -7.68338
3 19.2455 0.0454147 -7.70519
2 23.0301 -0.188463 -7.45702
2 -19.0791 3.95426 -7.47721
2 -15.1833 3.75039 -7.63459
2 -11.4623 3.62619 -7.53029
2 -7.52217 3.69931 -7.59133
3 -3.81965 3.63507 -7.63797
2 -0.083636 3.69481 -7.50173
2 3.82866 3.76171 -7.65192
2 7.44041 3.67148 -7.68256
3 11.5091 3.73811 -7.65311
3 15.3353 3.65714 -7.60233
2 19.0796 3.81668 -7.71471
1 -18.7553 7.63609 -7.62827
3 -15.2073 7.70659 -7.59036
1 -11.4113 7.47588 -7.53795
1 -7.58837 7.53908 -7.51808
2 -3.81313 7.51738 -7.62248
1 0.0183403 7.52984 -7.56509
2 3.80488 7.4763 -7.50425
2 7.55639 7.44352 -7.68387
2 11.3437 7.57307 -7.59322
3 15.2902 7.6382 -7.58885
2 19.0426 7.63808 -7.59932
3 -18.5715 11.4596 -7.74438
2 -15.0197 11.4863 -7.60648
2 -11.3078 11.3577 -7.62892
2 -7.67656 11.3348 -7.48516
1 -3.81341 11.2745 -7.56434
3 -0.0774708 11.3001 -7.52659
2 3.81208 11.4516 -7.62992
1 7.46009 11.3851 -7.6042
3 11.3294 11.4649 -7.65311
2 15.1214 11.4471 -7.64793
2 18.8179 11.6027 -7.71911
3 -15.0175 15.2425 -7.60834
2 -11.4241 15.1253 -7.60282
2 -7.70053 15.003 -7.56566
2 -3.79885 14.9964 -7.71638
1 -0.0680292 15.1409 -7.6803
3 3.69165 15.1193 -7.58351
2 7.41701 14.9592 -7.66464
1 11.2114 15.0875 -7.55021
3 14.9869 15.2593 -7.66164
1 -11.4848 18.907 -7.51379
3 -7.71741 18.9929 -7.56428
2 -3.844 18.9286 -7.63155
2 -0.00268472 19.0975 -7.65966
1 3.80253 19.0537 -7.56041
2 7.45662 18.8781 -7.5298
1 11.1707 18.8185 -7.56002
3 -0.190112 22.6167 -7.48343
3 -4.0654 -22.6065 -3.81974
1 -0.0451853 -22.5798 -3.95509
3 3.84036 -22.7318 -3.98356
3 -11.6267 -18.8384 -3.83153
2 -7.72029 -19.0618 -3.80498
2 -4.04023 -19.1458 -3.95314
2 -0.0916153 -19.1423 -3.86645
2 3.89048 -19.1782 -4.04916
2 7.60538 -19.0071 -3.8709
2 11.63 -18.8817 -4.05485
2 -15.4434 -15.2474 -3.86349
1 -11.5899 -15.1889 -3.92418
1 -7.74799 -15.2826 -3.90086
2 -3.88098 -15.2682 -3.92367
3 0.147083 -15.2863 -3.81632
2 3.93342 -15.2374 -3.95011
3 7.86657 -15.428 -3.90586
2 11.7006 -15.3917 -3.76677
2 15.5309 -15.2961 -3.91407
3 -19.0001 -11.3553 -3.78864
3 -15.2934 -11.4335 -3.76727
1 -11.5785 -11.2875 -3.89405
1 -7.64941 -11.4355 -3.84296
2 -3.80514 -11.5473 -3.86629
2 -0.0110412 -11.3869 -3.74941
2 4.08994 -11.5437 -3.80416
1 7.78979 -11.6013 -3.95909
3 11.5253 -11.5563 -4.03227
2 15.3345 -11.5052 -3.84822
3 19.1096 -11.4805 -3.91835
1 -19.0657 -7.51259 -3.84425
2 -15.3398 -7.5076 -3.71585
1 -11.5178 -7.65043 -3.72382
1 -7.59866 -7.59054 -3.7506
3 -3.7995 -7.59187 -3.82887
1 0.0446808 -7.68579 -3.93572
3 3.83523 -7.76081 -3.713
1 7.67335 -7.62581 -3.90254
3 11.5828 -7.66277 -3.90828
3 15.403 -7.76554 -3.84339
3 19.2786 -7.74862 -3.78599
3 -22.8098 -3.77239 -3.71071
3 -19.1193 -3.6777 -3.68973
2 -15.2587 -3.74416 -3.70569
2 -11.5273 -3.79387 -3.78373
2 -7.54206 -3.82779 -3.79947
3 -3.76077 -3.80615 -3.80415
2 -0.0465632 -3.78823 -3.77224
1 3.81766 -3.8528 -3.81157
2 7.70362 -3.86556 -3.81433
1 11.6223 -3.85799 -3.85471
2 15.4921 -3.8497 -3.80983
2 19.2176 -3.84829 -3.83212
2 23.0533 -4.1491 -3.68746
3 -22.9282 0.179876 -3.62704
1 -18.9942 0.118458 -3.69124
2 -15.2727 0.0102975 -3.70734
3 -11.4583 -0.0335708 -3.78509
1 -7.67821 -0.0469132 -3.68509
2 -3.78052 -0.0445549 -3.73117
3 -0.0590049 -0.0665802 -3.86622
3 3.82739 -0.00343122 -3.85503
3 7.80882 -0.15831 -3.90642
2 11.5059 -0.172352 -4.03321
2 15.5356 -0.23121 -3.83555
3 19.2938 0.0438649 -3.86303
1 22.9611 0.0119572 -3.69779
3 -22.7488 4.05489 -3.89065
2 -18.9294 3.95653 -3.71269
3 -15.2084 3.96551 -3.60401
3 -11.411 3.93378 -3.69102
3 -7.63303 3.71921 -3.64499
2 -3.82047 3.77826 -3.77812
2 0.0350884 3.75852 -3.67887
2 3.73542 3.68632 -3.87401
1 7.49778 3.80698 -3.7229
2 11.425 3.85871 -4.01474
2 15.2531 3.73881 -3.79314
1 19.291 3.88229 -3.83543
2 22.7721 3.85871 -3.67449
2 -19.0197 7.76856 -3.70175
1 -15.0662 7.64455 -3.75878
2 -11.4284 7.56116 -3.67303
2 -7.74198 7.56289 -3.70704
2 -3.85338 7.47871 -3.73129
2 0.0264442 7.53615 -3.75313
2 3.61955 7.52755 -3.86561
2 7.48417 7.6245 -3.90425
1 11.4148 7.57908 -3.91699
3 15.2792 7.70548 -3.94742
1 19.1835 7.81619 -3.97678
2 -19.4285 11.6835 -3.97696
1 -15.0303 11.3998 -3.80036
1 -11.3006 11.3312 -3.67217
1 -7.56101 11.3238 -3.70996
1 -3.91461 11.3715 -3.68255
3 -0.0696151 11.3886 -3.61651
1 3.45376 11.3914 -3.75407
3 7.40898 11.3116 -3.73249
3 11.3629 11.3735 -3.87093
2 15.4362 11.5337 -4.01402
1 19.0109 11.7225 -4.01846
2 -15.1371 15.1681 -3.82305
3 -11.4818 15.1989 -3.78673
3 -7.66608 15.2179 -3.67571
3 -3.96422 15.2608 -3.65606
2 -0.16611 15.1573 -3.81019
3 3.65056 15.1623 -3.68766
2 7.35625 15.0309 -3.79981
3 11.3174 15.1625 -3.81993
2 15.2938 15.3794 -3.88233
1 -11.4987 19.0223 -3.74726
1 -7.68568 18.9646 -3.62478
3 -3.94542 18.9466 -3.74465
1 -0.250116 18.9177 -3.70899
2 3.57911 19.0879 -3.83383
3 7.42018 18.9685 -3.71909
3 11.2748 18.9252 -3.76423
2 -4.05109 22.7605 -3.74577
2 -0.362072 22.7104 -3.66875
2 3.70885 22.8335 -3.91545
2 -7.71402 -22.6991 0.0937936
1 -3.89703 -22.6642 0.0463011
1 0.0276031 -22.6237 0.089596
3 3.85919 -22.5178 0.0845402
3 7.32446 -22.698 0.00225474
3 -11.6157 -18.9418 -0.0409432
2 -7.87416 -19.0197 -0.0362618
1 -3.80255 -19.0555 -0.15865
2 -0.0832322 -19.184 -0.0282035
2 3.86923 -19.0492 -0.157366
2 7.72557 -19.0115 0.0351893
2 11.7102 -19.2522 -0.10547
1 -15.3099 -14.9284 -0.0473266
1 -11.5406 -15.0989 -0.154438
2 -7.8131 -15.1919 -0.223464
3 -3.922 -15.2324 -0.130755
3 -0.0454619 -15.1649 -0.0170343
2 3.85597 -15.2726 0.0116368
1 7.81358 -15.2714 -0.0635116
1 11.664 -15.2382 -0.12276
2 15.5956 -15.1851 -0.0697101
2 -19.2451 -11.4538 -0.0323613
2 -15.3664 -11.285 -0.082812
2 -11.5152 -11.3965 -0.101457
2 -7.84834 -11.4163 -0.10772
1 -3.86488 -11.4289 -0.124577
1 -0.116176 -11.4364 -0.149471
2 3.92226 -11.5436 -0.143331
2 7.83674 -11.5419 -0.0125898
2 11.5597 -11.4145 -0.139365
1 15.3718 -11.4857 0.0465217
3 19.2912 -11.3884 -0.064382
2 -22.9262 -7.24438 0.0391194
3 -19.2222 -7.57502 -0.0148489
2 -15.4099 -7.75352 0.126468
2 -11.5766 -7.5866 0.0781971
2 -7.72151 -7.63225 0.0354598
3 -3.91388 -7.5736 -0.0149872
1 0.112178 -7.59352 -0.119093
2 3.82082 -7.6675 -0.158095
2 7.65712 -7.78236 -0.175523
2 11.5055 -7.66131 -0.101301
2 15.501 -7.74047 -0.046234
2 19.189 -7.82246 -0.0373078
3 22.7332 -7.82957 -0.0195831
2 -23.2576 -3.70998 -0.0197118
2 -19.1018 -3.64013 0.17749
2 -15.3819 -3.79277 0.094657
2 -11.4239 -3.90077 0.0387661
2 -7.65702 -3.81013 -0.0777673
3 -3.89053 -3.80802 0.088224
2 0.0475967 -3.8638 -0.0563411
3 3.83731 -3.87141 -0.125836
2 7.69717 -3.86829 0.0187163
1 11.5647 -3.92146 -0.0297981
2 15.5414 -3.90593 -0.0188418
2 19.3049 -3.95602 0.0049206
3 22.9517 -3.95125 -0.125508
1 -22.9709 0.222275 0.0497227
1 -19.0403 0.109359 0.122073
2 -15.4192 0.0200009 0.184012
3 -11.5811 0.0678027 0.0587919
1 -7.71002 -0.00427502 -0.0183913
2 -3.89328 -0.0254096 0.107623
2 -0.140715 -0.0485512 0.159796
2 3.78553 -0.0633013 -0.0157835
2 7.64845 -0.0328814 -0.0150858
2 11.5528 -0.0612108 -0.131016
1 15.3445 -0.0266852 -0.121531
2 19.3521 -0.121891 0.0359296
2 22.8481 -0.0996046 0.0874632
2 -22.8322 4.01428 0.0055146
2 -19.271 3.78819 0.197292
3 -15.2711 3.86361 0.080642
2 -11.4552 3.80423 0.165964
2 -7.70077 3.7301 0.0628524
2 -3.78297 3.71149 0.0489775
2 -0.115074 3.732 0.206098
1 3.81492 3.84274 -0.0613885
2 7.58517 3.93347 -0.143316
2 11.3063 3.74374 -0.0956042
1 15.2837 3.78069 -0.0498606
1 19.1568 3.87605 0.000728383
2 22.8031 3.86612 0.190958
2 -22.7333 7.82856 0.0985032
1 -19.138 7.85559 0.150295
3 -15.141 7.79174 0.0279796
2 -11.4125 7.53825 0.055456
3 -7.56202 7.58765 0.101791
2 -3.82569 7.56385 0.114961
3 -0.111909 7.68403 0.143866
2 3.71881 7.64647 0.148271
1 7.58398 7.70529 -0.058835
2 11.5866 7.77244 -0.0550554
1 15.4201 7.73663 -0.0522019
2 19.0349 7.72409 0.135312
2 22.6279 7.61386 -0.117777
2 -18.8917 11.3765 0.0948268
2 -15.1744 11.4689 0.240348
3 -11.366 11.3152 0.214703
1 -7.65126 11.3144 0.143476
2 -3.84203 11.3352 0.201951
3 -0.201035 11.5081 0.0988595
3 3.70162 11.4301 0.00841288
2 7.53498 11.3268 -0.039859
3 11.3601 11.461 -0.137082
1 15.2761 11.5619 -0.111026
2 19.0302 11.6716 -0.0935825
2 -15.1692 15.1313 0.0895589
1 -11.6368 15.2422 0.11468
2 -7.80992 15.0902 0.110508
2 -3.92774 15.1891 0.0908583
3 -0.152453 15.2648 0.0541506
3 3.52374 15.1943 0.0282947
1 7.29833 15.2099 -0.0298585
2 11.1909 15.2672 -0.130559
2 15.1234 15.3794 0.0524355
1 -11.5809 19.1455 0.0622804
2 -7.79562 19.0144 0.0645275
3 -4.00102 19.0664 0.146292
1 -0.184702 19.047 0.0275118
3 3.60591 19.0074 0.0222612
2 7.40475 18.9633 0.0848193
3 11.2018 19.0444 0.039188
2 -7.66442 22.756 -0.0802135
1 -3.92423 22.8041 -0.00745017
3 -0.0942045 22.8404 -0.0450546
2 3.68008 22.6711 0.0904087
1 7.24658 22.7002 0.0129884
2 -4.01907 -22.6359 3.68028
1 0.0299139 -22.9976 3.72556
3 3.98021 -22.7448 3.8257
2 -11.8506 -18.8942 3.82958
3 -7.76817 -19.0805 3.7917
3 -3.98664 -18.9397 3.54318
3 -0.0323755 -18.9482 3.68327
3 3.78965 -19.0462 3.8378
2 7.48223 -19.0017 3.75646
3 11.4555 -19.1097 3.64183
3 -15.5046 -14.9641 3.91914
1 -11.5168 -15.0986 3.79087
3 -7.80051 -15.1516 3.57689
1 -3.93964 -15.3616 3.5863
1 0.0517366 -15.1836 3.67448
3 3.81972 -15.1439 3.60372
2 7.53458 -15.3559 3.80587
1 11.6505 -15.1994 3.69352
2 15.3513 -15.3345 3.83266
1 -19.3871 -11.3479 3.97062
1 -15.3589 -11.3419 3.86975
2 -11.6168 -11.3902 3.81537
1 -7.68231 -11.3363 3.71004
2 -3.80406 -11.3382 3.61723
3 0.102888 -11.34 3.64501
2 3.89421 -11.3205 3.62849
2 7.63394 -11.4476 3.58228
2 11.5456 -11.3819 3.76202
1 15.3759 -11.472 3.79316
3 19.0566 -11.5035 3.88197
2 -19.3447 -7.44206 4.05118
3 -15.4312 -7.54728 4.0654
2 -11.5341 -7.53655 3.895
1 -7.52103 -7.56222 3.8563
2 -3.82473 -7.55509 3.7323
1 -0.100505 -7.61644 3.77159
2 3.98965 -7.72175 3.77873
1 7.81589 -7.60585 3.67785
2 11.4637 -7.63854 3.70426
3 15.4715 -7.69723 3.74295
2 19.2288 -7.75216 3.80992
1 -22.9103 -3.72917 4.07428
1 -19.199 -3.56476 4.07581
2 -15.4844 -3.73309 3.91016
2 -11.5172 -3.69499 4.00652
2 -7.63813 -3.71688 3.82549
2 -3.97773 -3.85589 3.80276
1 -0.0227459 -3.81917 3.78133
2 3.85326 -3.81172 3.69098
2 7.67078 -3.86754 3.77302
2 11.4748 -3.72604 3.81975
2 15.5118 -3.90956 3.61965
1 19.194 -3.92934 4.01951
1 22.889 -3.91177 3.87337
1 -22.7391 0.256523 4.06308
3 -19.1651 0.0804392 4.03719
2 -15.3882 0.0847557 4.06897
1 -11.598 0.101242 3.95561
2 -7.65916 -0.0310451 3.92795
1 -3.87981 -0.0205144 3.87023
2 -0.0806947 -0.0263545 3.81266
1 3.83052 0.0884901 3.71335
2 7.66681 -0.103841 3.71386
2 11.4574 0.12664 3.68123
2 15.3712 0.0339527 3.82977
3 19.2408 -0.00260259 3.73328
2 22.7724 0.021488 3.88475
1 -22.7693 3.94533 4.04328
3 -19.0843 3.86696 3.98826
3 -15.3345 3.94469 3.85617
1 -11.5285 3.74224 3.8644
2 -7.65022 3.86697 3.97533
3 -3.83054 3.81517 3.89023
2 -0.0565055 3.81086 3.86589
2 3.85405 3.80146 3.79563
1 7.64908 3.88935 3.84986
3 11.4009 3.91977 3.70259
1 15.2261 3.87075 3.7253
3 19.0921 4.00621 3.87995
1 22.6622 3.8268 3.78666
2 -19.1494 7.66791 3.82416
2 -15.3064 7.67592 4.03278
3 -11.4727 7.57242 3.92558
2 -7.41188 7.61498 3.92706
2 -3.91337 7.70643 3.88415
1 0.0224858 7.68768 3.93884
2 3.61388 7.6651 3.78219
2 7.67616 7.63723 3.84415
2 11.418 7.75986 3.74189
2 15.2236 7.6769 3.76529
2 19.0929 7.79078 3.80209
3 -18.955 11.4416 3.96075
2 -15.1945 11.5748 3.8749
2 -11.3183 11.3693 3.81105
3 -7.60398 11.3968 3.97904
2 -3.71865 11.4104 4.02932
3 -0.0266268 11.4337 3.9606
2 3.78178 11.4708 3.82219
3 7.42513 11.4261 3.79508
3 11.2615 11.4881 3.87917
3 15.0363 11.5852 3.74097
1 18.9752 11.7007 3.93855
1 -15.5776 15.6517 4.17505
2 -11.4489 15.1769 3.84518
1 -7.64413 15.3394 3.94915
3 -3.81387 15.1298 3.85135
1 -0.13823 15.1723 3.99452
3 3.66995 15.3099 3.83065
3 7.4053 15.1603 3.86403
2 11.3705 15.2449 3.82267
2 15.2057 15.5012 3.80785
2 -11.4602 19.2392 4.01238
3 -7.79885 19.2785 3.97821
3 -3.92921 19.0207 4.02094
2 -0.183153 19.107 3.91398
2 3.58206 18.987 3.92028
1 7.48167 19.0739 4.03048
1 11.2197 19.4534 4.10517
3 -4.05043 22.8254 3.9391
2 -0.296498 22.9423 3.7085
3 3.64285 22.5658 3.92128
3 -0.141149 -22.5384 7.26416
3 -11.5306 -18.8291 7.51524
1 -7.85863 -18.8655 7.35136
2 -3.93285 -19.0991 7.46145
2 -0.0597528 -19.1026 7.37871
3 3.81208 -18.9607 7.52008
2 7.5339 -19.1053 7.38613
2 11.3469 -18.9233 7.63347
1 -15.6239 -15.488 8.21397
1 -11.6226 -15.1002 7.58472
1 -7.75805 -15.1961 7.5835
3 -3.95213 -15.3269 7.42732
1 -0.000467136 -15.2963 7.36414
2 3.81605 -15.1015 7.4467
1 7.45995 -15.1683 7.42779
3 11.3353 -15.2202 7.46946
2 15.0852 -15.1332 7.65419
1 -19.0547 -11.0928 7.87235
2 -15.4358 -11.2287 7.90142
2 -11.5057 -11.3165 7.66073
1 -7.75423 -11.3082 7.66763
1 -4.07938 -11.3605 7.45999
2 -0.0321916 -11.3672 7.59296
2 3.90384 -11.4005 7.46453
1 7.61635 -11.3963 7.47502
1 11.2646 -11.4232 7.49196
2 15.3533 -11.4397 7.51905
1 19.0232 -11.4086 7.74993
2 -19.0864 -7.47068 7.89549
1 -15.385 -7.54265 7.70838
2 -11.3038 -7.5126 7.64917
2 -7.68793 -7.50241 7.67422
3 -3.93026 -7.57442 7.52069
1 -0.0030291 -7.60467 7.55352
3 3.811 -7.62588 7.50349
1 7.72276 -7.49137 7.47404
3 11.4887 -7.6393 7.5034
1 15.2904 -7.74905 7.45418
3 19.0066 -7.81217 7.68738
2 -19.2782 -3.63366 7.72106
2 -15.3775 -3.6206 7.83459
2 -11.4511 -3.69353 7.84769
2 -7.54028 -3.83144 7.82025
2 -3.91881 -3.8129 7.6344
2 -0.0402937 -3.6598 7.68988
2 3.82312 -3.7179 7.51046
2 7.6835 -3.79019 7.45745
3 11.5233 -3.74633 7.57853
1 15.3504 -3.73021 7.49829
1 19.0874 -3.89816 7.54262
3 -22.8594 0.127448 7.73062
2 -19.2979 0.114145 7.81951
2 -15.2954 -0.055818 7.61729
2 -11.474 0.0394728 7.89248
2 -7.60697 0.0281486 7.75784
2 -3.78582 0.0528107 7.69768
2 0.0285539 -0.034171 7.68447
2 3.79357 0.133756 7.59469
1 7.6579 0.12181 7.536
2 11.4885 0.142656 7.47627
1 15.3548 0.0881975 7.59814
1 19.0614 0.10771 7.53914
1 22.8126 0.0340764 7.59107
3 -19.1797 3.85442 7.78561
3 -15.3704 3.84474 7.72138
2 -11.5298 3.92888 7.72616
2 -7.86453 3.6605 7.67096
2 -3.80146 3.61381 7.71178
1 -0.00669969 3.83436 7.58241
1 3.76161 3.89477 7.66322
3 7.71997 3.91875 7.79073
2 11.4837 4.06227 7.49556
2 15.336 3.99589 7.47696
3 19.0072 3.93819 7.60789
1 -18.9428 7.76673 7.72374
2 -15.3437 7.74783 7.76593
2 -11.5776 7.64048 7.73906
3 -7.72269 7.61292 7.84207
2 -3.92086 7.60272 7.91043
1 -0.0716136 7.52041 7.7411
3 3.79821 7.69195 7.76965
1 7.58178 7.70005 7.62115
2 11.2968 7.72753 7.52905
1 15.1549 7.76594 7.71117
2 19.1329 7.70623 7.54571
2 -18.8926 11.6762 7.83804
2 -15.2067 11.4623 7.88195
2 -11.3949 11.4509 7.86084
2 -7.68616 11.5156 7.80898
2 -3.77343 11.4855 7.90848
2 -0.145004 11.4618 7.90354
2 3.82693 11.4817 7.78138
3 7.60148 11.497 7.548
2 11.3743 11.4785 7.51923
2 15.1815 11.6801 7.62409
3 18.9065 11.6348 7.57212
1 -15.4259 15.6048 8.24462
1 -11.6245 15.327 7.83088
1 -7.64545 15.3351 7.8177
3 -3.81183 15.3515 7.80424
3 -0.0378504 15.2323 7.77553
2 3.84025 15.1968 7.90569
1 7.37039 15.3327 7.82358
1 11.2404 15.3517 7.43642
2 14.989 15.3429 7.73056
3 -11.4305 18.8804 7.97498
3 -7.50147 19.136 7.72106
2 -3.91098 19.2165 7.73414
1 -0.111712 19.1196 7.80879
3 3.58139 19.1456 7.91332
2 7.40012 18.9706 7.72526
3 11.1301 18.9238 7.65095
2 -0.0232229 22.77 7.46969
2 -7.78553 -18.9334 11.1534
3 -3.90788 -19.0007 11.2443
3 0.0237479 -18.9831 11.2711
3 3.83134 -18.8172 11.3253
2 7.49395 -18.8255 11.2101
1 -11.7414 -15.48 11.5589
1 -7.73902 -15.1506 11.362
3 -3.78208 -15.2599 11.2254
2 -0.0743819 -15.2352 11.4331
3 3.85896 -15.2054 11.3771
3 7.62971 -15.1539 11.3287
2 11.5204 -15.3075 11.2886
1 -15.2656 -11.3201 11.6184
3 -11.6063 -11.31 11.6089
1 -7.69234 -11.3139 11.4004
2 -3.76497 -11.368 11.4025
2 -0.0229989 -11.4998 11.5315
2 3.8841 -11.3993 11.308
1 7.62383 -11.4477 11.3957
1 11.4825 -11.4702 11.4327
1 15.3491 -11.6709 11.5083
1 -19.1379 -7.5008 11.5732
2 -15.3334 -7.45514 11.5569
1 -11.5163 -7.55363 11.4299
3 -7.66946 -7.45733 11.3886
2 -3.8599 -7.55878 11.4238
2 -0.11531 -7.58072 11.4034
2 3.84608 -7.56774 11.3181
1 7.56254 -7.6155 11.1729
2 11.481 -7.60123 11.2553
2 15.3593 -7.67704 11.4389
1 18.7674 -7.61353 11.3797
2 -18.9943 -3.92674 11.9127
3 -15.2697 -3.68636 11.733
3 -11.5106 -3.74009 11.5948
3 -7.5891 -3.77448 11.5259
2 -3.77953 -3.76674 11.5579
2 -0.0461476 -3.71236 11.5095
2 3.83553 -3.85219 11.4079
1 7.58474 -3.72589 11.3003
1 11.4995 -3.72695 11.1858
2 15.3463 -3.70884 11.3734
3 18.9485 -3.87496 11.3611
3 -19.1809 0.162031 11.7462
3 -15.402 0.200126 11.7835
3 -11.5033 0.163288 11.6856
3 -7.70356 0.0471941 11.6085
2 -3.82127 -5.83282e-05 11.5814
3 -0.0140711 -0.107258 11.5711
2 3.83121 0.0385081 11.3474
3 7.70103 0.12478 11.3376
3 11.4966 0.0956 11.2995
1 15.3785 0.0946156 11.3175
2 19.137 0.195028 11.4149
1 -18.946 3.84534 11.6897
2 -15.3114 3.99092 11.636
1 -11.5943 3.86536 11.6351
1 -7.84911 3.76848 11.606
1 -3.80889 3.86375 11.5891
1 -0.174065 3.71323 11.6095
3 3.81656 3.79213 11.5393
1 7.65613 3.86231 11.424
2 11.5079 3.89384 11.432
2 15.3971 3.93575 11.4712
2 19.2214 4.08588 11.4578
3 -19.0866 7.70891 11.4014
3 -15.3186 7.7015 11.5638
1 -11.6048 7.70091 11.5898
2 -7.77471 7.75937 11.647
2 -3.99988 7.52935 11.5509
2 -0.00979195 7.64582 11.4589
1 3.79153 7.67135 11.5045
3 7.57251 7.73704 11.5128
2 11.4339 7.79083 11.4641
2 15.3986 7.87377 11.4027
1 18.7759 7.75853 11.4232
2 -15.3525 11.4692 11.5059
2 -11.6144 11.3415 11.6123
1 -7.65971 11.3899 11.5987
2 -4.02902 11.478 11.5801
3 -0.0939696 11.4688 11.6827
1 3.65732 11.5345 11.5186
3 7.61157 11.4853 11.4874
2 11.2813 11.5623 11.4763
2 15.2112 11.8017 11.423
3 -11.4016 15.2578 11.6922
2 -7.69629 15.2929 11.6486
2 -3.88258 15.2183 11.7955
1 -0.1212 15.1581 11.6488
2 3.70997 15.3258 11.5615
3 7.47161 15.1497 11.5587
3 11.1656 15.4011 11.4196
1 -7.82749 18.8434 11.6457
2 -3.94472 19.1755 11.7561
2 -0.22975 19.5844 12.4519
3 3.73089 18.8069 11.6615
3 7.51944 18.9989 11.4283
2 -7.75115 -15.2377 15.1589
2 -3.89002 -15.2977 15.2382
2 -0.0250286 -15.2125 14.949
3 3.80028 -15.252 15.1681
2 7.55373 -15.2436 15.024
2 -11.6033 -11.4734 15.4339
3 -7.65123 -11.5272 15.1098
3 -3.82515 -11.3738 15.1096
2 -0.0557528 -11.547 15.1449
2 3.8532 -11.4243 15.0716
2 7.6613 -11.399 15.1767
3 11.4682 -11.3364 15.0497
1 -15.1666 -7.67877 15.383
1 -11.5394 -7.52232 15.2801
2 -7.66766 -7.63718 15.1164
2 -3.88534 -7.58932 15.2615
3 0.125946 -7.69076 15.2032
2 3.85763 -7.81763 15.1698
1 7.76091 -7.56562 15.0306
2 11.5509 -7.56536 15.1551
3 15.0814 -7.64869 14.8664
2 -15.193 -3.69081 15.4506
3 -11.396 -3.73333 15.334
1 -7.59851 -3.76889 15.3364
2 -3.80562 -3.97081 15.3312
1 0.0387786 -3.80788 15.2911
1 3.83756 -3.82511 15.2852
3 7.66962 -3.81526 15.0411
2 11.4254 -3.7523 14.938
2 15.2146 -3.71667 15.0214
2 -15.2444 0.0512467 15.5086
2 -11.6228 -0.0282586 15.3641
2 -7.69127 0.109757 15.3337
2 -3.86463 -0.0376529 15.2692
2 0.117125 0.0320433 15.3548
3 3.93229 -0.0973804 15.2102
2 7.70168 0.0204923 15.1525
2 11.5018 0.0114341 15.052
3 15.3069 0.0407898 15.1059
1 -15.5433 3.84172 15.7018
1 -11.4796 3.81909 15.5125
2 -7.79955 3.81837 15.5421
1 -3.95887 3.88406 15.4597
1 0.0868267 3.80013 15.3785
2 3.77115 3.74116 15.2614
2 7.63429 3.7363 15.0803
3 11.4624 3.79436 15.1117
2 15.4093 3.91683 15.3368
2 -15.3568 7.8475 15.4684
1 -11.6277 7.78139 15.3619
3 -7.71783 7.68223 15.5395
2 -3.9785 7.68446 15.6279
2 0.0100801 7.519 15.1604
2 3.90415 7.56345 15.3772
2 7.66528 7.69211 15.1279
2 11.5131 7.86253 15.0705
3 15.147 7.75425 15.0649
1 -11.7778 11.5008 15.4706
2 -7.84343 11.4803 15.5193
1 -3.9315 11.4247 15.4786
1 -0.0120824 11.396 15.4278
3 3.73003 11.4629 15.2975
1 7.57623 11.5075 15.2534
1 11.3242 11.5899 15.1278
3 -7.88176 15.233 15.3878
3 -4.10393 15.2242 15.615
3 -0.0706567 15.0937 15.4298
2 3.71379 15.1961 15.2189
1 7.46773 15.1386 15.3118
3 -7.65204 -11.3302 18.9376
3 -3.84105 -11.384 19.0782
3 -0.128484 -11.4185 18.9745
2 3.85603 -11.4618 19.0615
1 7.8391 -11.5009 18.8752
3 -11.4328 -7.52216 19.0052
1 -7.66213 -7.50461 19.2456
1 -3.78662 -7.63081 19.1012
2 -0.154289 -7.65164 19.0975
3 3.80031 -7.69095 18.8913
1 7.45831 -7.73453 18.9071
3 11.5317 -7.72319 18.6592
2 -11.6502 -4.19377 19.8302
2 -7.62091 -3.81021 19.0693
1 -3.78612 -3.86579 19.237
1 0.0923925 -3.69455 19.0031
1 3.80148 -3.73742 18.9327
2 7.75067 -3.87227 18.985
2 11.9177 -3.79035 19.0635
2 -11.4539 -0.0156034 19.3254
2 -7.55178 0.0114922 19.2449
2 -3.84067 0.126577 19.1543
2 0.018651 0.0267707 19.1499
2 3.92252 -0.0219856 18.9807
1 7.74084 -0.217062 19.0544
3 11.5381 0.0769901 18.9791
1 -11.8465 4.15662 19.5588
2 -7.76206 3.82989 19.3058
2 -3.93625 3.76062 19.1323
1 -0.0536211 3.8068 19.1018
2 3.87555 3.97153 19.1403
2 7.64768 3.67933 18.9656
2 11.7824 4.12216 19.2855
2 -11.7573 7.73583 19.1578
3 -7.84024 7.71969 19.3214
3 -3.85094 7.63429 19.2459
3 -0.0112956 7.59744 19.1092
2 3.73979 7.56907 19.1512
1 7.81774 7.55181 19.0674
2 11.8922 8.27593 19.078
2 -7.86756 11.4065 19.1113
1 -4.25793 11.674 19.6035
1 -0.0311513 11.4687 19.0507
3 3.72007 11.5955 18.9616
3 7.60698 11.475 18.822
3 0.236715 -7.6294 22.5599
2 -3.61816 -3.891 22.9349
3 0.175164 -3.69122 22.5889
3 4.04995 -4.05339 22.519
1 -7.49878 -0.00238624 22.8861
3 -3.72216 0.0199227 22.7435
2 0.105879 0.0833012 22.8155
3 3.99966 -0.0315754 22.6789
1 7.78951 -0.166615 22.6947
3 -3.92611 3.79585 22.921
2 -0.045076 3.84965 22.8037
2 3.85871 3.95163 22.7922
3 -0.0808576 7.48355 22.7452
1 -5.92607 -5.59675 -22.7081
1 -1.82294 -5.81178 -22.8649
3 1.96594 -5.87813 -22.8569
2 6.05995 -5.88532 -22.7229
3 -5.41467 -1.9068 -22.7099
1 -1.8673 -2.09879 -22.9224
3 1.94332 -2.09592 -22.8808
3 5.84104 -1.92532 -22.7535
3 -5.49936 1.70975 -22.7452
3 -1.65275 1.74814 -22.8431
2 2.15463 1.74842 -22.7143
2 5.96333 1.6437 -22.581
2 -5.44587 5.47983 -22.6215
2 -1.86741 5.53409 -22.7956
3 2.07725 5.50914 -22.7443
3 5.77889 5.61402 -22.4796
2 -6.03753 -13.1614 -18.9968
3 -1.73178 -12.9849 -19.03
2 2.24106 -13.3428 -18.9461
3 6.21539 -13.3605 -18.8314
3 -9.70614 -9.60324 -19.0566
2 -5.55313 -9.48645 -19.1764
1 -1.68864 -9.6513 -19.1257
2 2.08726 -9.51896 -18.8919
2 6.04789 -9.57689 -18.9623
2 9.95726 -9.72644 -18.9309
3 -13.3522 -5.92961 -18.9813
3 -9.32505 -5.72384 -19.0891
1 -5.51204 -5.84307 -19.1402
2 -1.61015 -5.78491 -19.077
2 2.01706 -5.80435 -19.2031