4321
 Atoms. Timestep: 4193
3 0.226583 -7.6128 -22.5784
1 -3.80694 -3.9074 -22.6355
3 0.0794257 -3.78729 -22.7532
2 3.90479 -3.79294 -22.7908
1 -7.47281 -0.126818 -22.794
3 -3.89314 -0.0423088 -22.6478
2 0.114781 -0.184249 -22.6265
2 3.72225 -0.0549767 -22.6568
1 7.54608 -0.20903 -22.4609
2 -3.84429 3.79331 -22.7459
3 0.00533159 3.59886 -22.5715
3 3.89507 3.65762 -22.5615
1 0.0386495 7.24242 -22.6784
2 -7.83932 -11.4792 -19.1616
1 -4.04365 -11.8742 -19.3262
2 0.0868944 -11.6157 -19.1269
1 4.32901 -11.9554 -19.5502
1 7.72975 -11.5724 -19.1137
3 -11.3096 -7.73251 -19.1317
2 -7.58738 -7.69646 -19.2063
2 -3.82339 -7.66786 -19.253
2 0.0668085 -7.71585 -19.1529
1 3.80218 -7.74363 -19.0401
2 7.35119 -7.67309 -19.1023
2 11.3443 -7.9001 -18.8468
3 -11.3827 -3.77942 -18.9967
2 -7.6298 -3.97294 -19.1501
1 -3.85238 -3.94076 -19.0679
2 0.11532 -3.7688 -19.183
3 3.81133 -3.74716 -19.0581
1 7.56617 -3.96344 -19.1172
3 11.6228 -3.7926 -19.0116
2 -11.4603 -0.0714358 -19.0815
2 -7.65853 -0.163527 -19.0678
2 -3.86142 -0.00266746 -19.0368
1 -0.0649607 -0.0828149 -18.9515
3 3.75165 -0.143705 -18.9963
3 7.77559 -0.0624193 -19.1298
2 11.5553 -0.115266 -18.9471
3 -11.4586 3.71274 -19.0935
3 -7.61956 3.73298 -19.0831
2 -3.86254 3.58077 -18.927
1 -0.0609198 3.70887 -19.0752
3 3.77529 3.6337 -18.9451
3 7.62519 3.64386 -18.9358
1 11.4228 3.68529 -18.8572
2 -11.6607 7.92098 -19.077
1 -7.51698 7.4943 -18.9756
3 -3.81571 7.61219 -19.1628
2 0.0837608 7.53642 -19.0553
2 3.81541 7.43421 -19.0572
2 7.59303 7.3632 -18.9207
1 11.1292 7.50132 -18.8583
3 -7.68409 11.2718 -18.7379
2 -3.99831 11.4286 -19.0075
2 -0.222008 11.379 -19.2028
2 3.86317 11.3525 -19.1832
3 7.63677 11.2191 -18.9643
2 -7.80887 -15.3167 -15.1349
2 -3.83523 -15.4457 -15.3502
3 0.090011 -15.2919 -15.4211
2 4.02208 -15.3901 -15.5608
2 7.71489 -15.2333 -15.151
2 -11.4609 -11.6005 -15.3319
3 -7.87859 -11.4995 -15.3369
3 -3.90096 -11.5245 -15.2983
2 0.110398 -11.6331 -15.3303
3 3.95725 -11.6488 -15.3908
1 7.635 -11.5667 -15.3563
2 11.3359 -11.326 -15.1891
2 -15.6045 -8.22485 -15.5065
3 -11.54 -7.75919 -15.3172
2 -7.67403 -7.73859 -15.4631
2 -3.80918 -7.81014 -15.3036
2 0.00904241 -7.75117 -15.2007
2 3.89951 -7.64637 -15.2867
2 7.65455 -7.73817 -15.2386
1 11.4318 -7.75753 -15.4135
2 15.2233 -7.91392 -15.2512
2 -15.3155 -3.87814 -15.1566
1 -11.4964 -3.89022 -15.3348
3 -7.70115 -4.01497 -15.4262
1 -3.90075 -3.89596 -15.3429
2 0.0761929 -3.80489 -15.2625
1 3.73271 -3.85596 -15.1781
1 7.6944 -3.87655 -15.2353
1 11.5604 -3.91857 -15.3306
3 15.3583 -3.86476 -15.2365
2 -15.2615 -0.018403 -15.0726
2 -11.3585 -0.0757311 -15.2347
2 -7.75542 -0.163609 -15.2516
2 -3.95375 -0.12407 -15.2724
1 -0.0313589 -0.214622 -15.3337
3 3.78855 -0.118883 -15.3362
1 7.63471 -0.15084 -15.3692
3 11.5295 -0.0703242 -15.3228
2 15.3042 -0.116509 -15.3092
3 -15.3958 3.97108 -15.3303
1 -11.3501 3.81015 -15.2675
1 -7.73545 3.53193 -15.363
1 -3.84934 3.68821 -15.1288
1 -0.135247 3.66779 -15.2109
2 3.7931 3.53603 -15.2232
2 7.63134 3.64342 -15.2385
2 11.3908 3.71359 -15.1626
3 15.2451 3.7961 -15.3111
1 -15.3469 7.98546 -15.2763
2 -11.3842 7.52857 -15.2512
2 -7.52258 7.59061 -15.1008
2 -3.89008 7.44662 -15.1953
2 -0.032042 7.45014 -15.2521
3 3.67667 7.44129 -15.3771
2 7.61757 7.52077 -15.1546
2 11.3894 7.52569 -15.2103
2 15.0557 7.62465 -15.1406
1 -11.3795 11.3564 -15.0743
2 -7.55553 11.2193 -15.204
2 -3.69959 11.2944 -15.2256
1 -0.0718131 11.3577 -15.1934
3 3.70075 11.2284 -15.3104
1 7.68908 11.382 -15.0778
2 11.5284 11.5778 -15.2391
2 -7.67073 15.0174 -14.9156
2 -3.92152 15.1816 -15.2567
1 0.0196188 15.1232 -15.1886
3 3.76891 15.0953 -15.251
2 7.69624 15.1522 -15.474
1 -7.97913 -19.2064 -11.677
1 -3.88533 -19.1573 -11.6484
2 0.0923865 -19.2255 -11.6234
3 3.84454 -19.0209 -11.6208
1 7.86238 -18.9994 -11.5628
3 -11.5889 -15.3559 -11.4666
3 -7.74785 -15.3459 -11.494
1 -3.73232 -15.2823 -11.5438
3 0.0401579 -15.3242 -11.5193
3 3.83859 -15.1945 -11.629
2 7.62953 -15.4027 -11.5944
2 11.6273 -15.343 -11.6805
1 -15.4137 -11.6503 -11.4678
3 -11.5726 -11.4814 -11.5854
1 -7.71174 -11.4994 -11.4787
2 -3.90157 -11.6059 -11.5481
2 0.029685 -11.5586 -11.5434
1 3.80749 -11.5617 -11.5736
1 7.75833 -11.5133 -11.5029
3 11.6224 -11.662 -11.3957
2 15.3681 -11.4558 -11.4941
2 -18.9189 -7.86062 -11.4357
2 -15.3162 -7.70934 -11.4801
3 -11.5647 -7.67792 -11.5339
3 -7.67953 -7.63511 -11.4335
2 -3.76562 -7.59534 -11.5308
2 -0.0601486 -7.60408 -11.4611
2 3.89417 -7.69962 -11.5131
1 7.77093 -7.67888 -11.4779
2 11.5195 -7.74176 -11.4816
2 15.3599 -7.62762 -11.479
2 18.9017 -7.69484 -11.4415
2 -19.0568 -4.05501 -11.6586
1 -15.2027 -3.897 -11.5246
1 -11.4897 -3.94224 -11.5229
1 -7.77881 -3.95769 -11.4616
2 -3.95432 -3.89463 -11.5223
1 -0.0151938 -3.96442 -11.4649
3 3.72117 -3.92133 -11.5662
2 7.54368 -3.86789 -11.4697
2 11.5632 -3.87586 -11.6118
1 15.378 -3.91465 -11.5864
1 19.2272 -4.00722 -11.5785
1 -19.2424 0.0204271 -11.6165
3 -15.3466 0.0459233 -11.5427
2 -11.5206 -0.102859 -11.4145
1 -7.81396 -0.132745 -11.4289
1 -3.81421 -0.122208 -11.537
1 0.0863452 -0.143321 -11.4017
1 3.8887 -0.123852 -11.4802
2 7.6395 -0.262343 -11.5722
2 11.5248 -0.207838 -11.5983
2 15.2761 -0.0136008 -11.5018
3 19.1848 -0.0666312 -11.5278
1 -19.1813 3.95463 -11.4908
2 -15.2807 3.75529 -11.3539
1 -11.4419 3.72857 -11.326
2 -7.61218 3.65922 -11.4409
2 -3.81729 3.67129 -11.4018
2 -0.0374772 3.80797 -11.5078
2 3.78588 3.73502 -11.5849
2 7.54715 3.52043 -11.5849
1 11.4054 3.70671 -11.4022
2 15.1892 3.69582 -11.3735
2 18.9807 3.92632 -11.4763
3 -18.6938 7.71473 -11.348
1 -15.2831 7.62248 -11.3866
2 -11.4381 7.39867 -11.353
1 -7.58731 7.44695 -11.3085
3 -3.69258 7.46539 -11.3242
2 0.0638979 7.54895 -11.3245
2 3.832 7.7437 -11.4103
2 7.59622 7.57851 -11.4346
1 11.2801 7.53178 -11.37
1 15.071 7.65647 -11.449
3 18.7202 7.78991 -11.4363
3 -15.1242 11.2859 -11.4525
2 -11.4 11.2408 -11.368
2 -7.50759 11.2914 -11.3226
1 -3.79515 11.3462 -11.3451
2 0.0101355 11.2493 -11.3262
2 3.75558 11.3672 -11.3329
2 7.51099 11.3987 -11.3531
3 11.2163 11.4598 -11.402
3 15.1211 11.3178 -11.4361
3 -11.393 15.0142 -11.2894
3 -7.6587 15.1969 -11.3222
2 -3.77346 14.9321 -11.4227
1 0.0819578 15.164 -11.3616
1 3.71779 15.0898 -11.3254
1 7.60451 15.3052 -11.3764
2 11.6821 15.2711 -11.7192
1 -7.66083 18.7285 -11.269
2 -4.19241 19.1242 -11.5509
2 -0.0441575 18.9734 -11.4788
2 3.9696 19.1025 -11.5823
2 7.73288 18.7758 -11.3315
3 0.086117 -22.6698 -7.61615
1 -11.3107 -18.8957 -7.56525
2 -7.55399 -18.9803 -7.60509
3 -3.83408 -18.9802 -7.72591
2 0.0925517 -18.9284 -7.6942
1 3.85759 -18.9733 -7.77398
1 7.63358 -18.9525 -7.80354
1 11.5567 -19.0374 -7.72295
3 -15.1344 -15.1844 -7.68212
3 -11.2811 -15.2767 -7.7071
1 -7.67977 -15.192 -7.65712
1 -3.85921 -15.1896 -7.62085
3 -0.0920843 -15.196 -7.70658
1 3.84608 -15.2281 -7.70598
1 7.59441 -15.2266 -7.68811
2 11.6203 -15.2724 -7.66651
3 15.2173 -15.3493 -7.8592
2 -18.8627 -11.3357 -7.47363
3 -15.2463 -11.4493 -7.68795
2 -11.5098 -11.4593 -7.82191
3 -7.68173 -11.5665 -7.80065
1 -3.80445 -11.5188 -7.73123
2 0.0258971 -11.5029 -7.82469
3 3.78995 -11.4139 -7.65336
3 7.64301 -11.4542 -7.6983
2 11.5408 -11.5347 -7.59481
2 15.2301 -11.3474 -7.54958
3 18.9442 -11.3018 -7.88405
1 -18.8468 -7.65089 -7.61112
3 -15.2126 -7.65021 -7.73192
2 -11.3915 -7.67787 -7.69412
2 -7.6245 -7.63708 -7.68286
2 -3.77568 -7.6976 -7.73363
3 -0.082483 -7.83806 -7.72161
1 3.82699 -7.75573 -7.70937
3 7.56191 -7.71402 -7.70546
3 11.5095 -7.67888 -7.70275
3 15.3514 -7.641 -7.6595
3 19.0242 -7.60591 -7.68337
2 -19.1991 -3.93917 -7.6217
2 -15.1682 -3.96489 -7.67788
2 -11.4552 -3.85525 -7.53565
2 -7.73737 -3.79021 -7.68556
1 -3.85767 -3.79981 -7.64313
2 -0.128671 -3.98589 -7.75291
1 3.76295 -3.78941 -7.69159
3 7.57718 -3.8649 -7.85022
1 11.507 -3.81747 -7.76085
3 15.2779 -3.90921 -7.75658
2 18.9794 -3.81512 -7.65904
2 -22.6444 -0.174519 -7.35323
1 -19.2044 -0.00347219 -7.68586
2 -15.3129 -0.105348 -7.69088
3 -11.6839 -0.0418037 -7.56737
3 -7.81597 -0.0850447 -7.65503
1 -3.8489 -0.103963 -7.6533
2 0.033498 -0.0541004 -7.7105
3 3.67925 0.0567817 -7.67173
1 7.64074 -0.198494 -7.62391
3 11.481 -0.0687575 -7.83092
1 15.1933 -0.0831465 -7.70764
2 18.956 0.0924278 -7.70926
2 22.65 0.0119202 -7.55123
2 -19.0487 3.76769 -7.62941
1 -15.4142 3.70921 -7.60532
1 -11.4699 3.61863 -7.57329
1 -7.70104 3.72387 -7.58881
1 -3.7573 3.7523 -7.61656
3 -0.0826898 3.75771 -7.62691
1 3.764 3.60267 -7.6294
1 7.71642 3.68701 -7.67391
2 11.4424 3.66274 -7.64862
2 15.1673 3.86444 -7.51168
2 18.9548 3.84328 -7.69915
3 -18.9373 7.49353 -7.50555
1 -15.1175 7.60623 -7.69494
2 -11.4585 7.4241 -7.58288
1 -7.53409 7.50002 -7.59971
3 -3.73691 7.57476 -7.47426
1 0.00967162 7.57603 -7.51373
3 3.84808 7.57812 -7.61366
2 7.71435 7.50927 -7.52404
2 11.451 7.76398 -7.55078
1 15.0301 7.75283 -7.57651
2 18.8336 7.71181 -7.68396
1 -18.8006 11.6337 -7.90686
2 -15.2918 11.5833 -7.69523
1 -11.3929 11.311 -7.50412
2 -7.62394 11.2427 -7.71637
3 -3.86913 11.2819 -7.53137
1 0.0500409 11.2738 -7.45196
2 3.68853 11.2937 -7.46101
2 7.68019 11.447 -7.47313
2 11.3451 11.4602 -7.54369
2 15.2195 11.4455 -7.79155
1 18.967 11.3261 -7.68042
2 -15.1729 15.1654 -7.78164
2 -11.3928 15.0927 -7.7108
3 -7.66988 15.2098 -7.53694
1 -3.81882 15.2095 -7.55719
2 -0.0125523 15.2162 -7.65619
2 3.72213 15.2442 -7.40035
2 7.52344 15.0992 -7.44711
3 11.5779 15.3402 -7.74215
2 15.5549 15.2822 -8.00724
2 -11.3937 18.7926 -7.62788
1 -7.6551 18.7735 -7.57651
3 -3.76824 18.8434 -7.51434
1 0.107761 19.0649 -7.46286
1 3.99972 19.089 -7.4967
2 7.63481 19.0276 -7.48417
2 11.5819 18.8783 -7.7839
2 0.00836133 22.6497 -7.413
1 -3.73536 -22.6316 -4.08327
1 0.0473487 -22.6522 -3.98378
2 3.92101 -22.6871 -3.82145
3 -11.305 -18.773 -3.92123
2 -7.56246 -18.9327 -3.88814
3 -3.79662 -18.9888 -3.99031
1 -0.00679659 -18.9954 -4.03355
3 3.78274 -19.0611 -3.90954
3 7.59003 -19.0236 -3.99385
2 11.5445 -18.9454 -3.84246
1 -15.2405 -15.3025 -3.94682
2 -11.389 -15.0822 -3.8404
2 -7.48808 -15.2725 -3.89674
3 -3.87872 -15.1603 -3.84624
3 0.00136119 -15.1503 -3.93406
1 3.8227 -15.2026 -3.90711
2 7.59823 -15.1722 -3.95703
1 11.5289 -15.1759 -4.00455
3 15.4507 -15.3184 -3.84494
1 -18.8678 -11.4787 -3.81648
3 -15.2407 -11.4299 -3.8659
2 -11.2976 -11.4724 -3.82034
2 -7.6615 -11.3194 -3.91715
1 -3.79873 -11.4055 -3.87163
2 0.0351118 -11.4226 -3.86772
3 3.8343 -11.4614 -3.90936
2 7.64854 -11.3839 -3.98744
3 11.5084 -11.368 -3.95067
1 15.3214 -11.541 -3.80114
1 19.2422 -11.8009 -3.97169
2 -19.0453 -7.73912 -3.79397
2 -15.1613 -7.63903 -3.93155
1 -11.5316 -7.71834 -3.94985
2 -7.63675 -7.66997 -4.00055
1 -3.77732 -7.58919 -3.89804
3 -0.123075 -7.61771 -3.97787
2 3.89713 -7.75283 -3.90119
1 7.79925 -7.65817 -3.98985
1 11.522 -7.62182 -3.97509
1 15.2472 -7.60868 -3.94006
3 18.9174 -7.77849 -3.88729
1 -22.659 -3.92664 -3.69319
2 -19.0525 -3.97034 -3.54904
2 -15.1553 -3.82635 -3.89388
3 -11.3988 -3.85609 -3.9084
2 -7.69452 -3.83704 -3.74393
3 -3.77892 -3.89614 -3.82567
3 -0.0860778 -3.86474 -3.79365
1 3.85817 -3.82159 -3.86643
2 7.76787 -3.91447 -3.87548
1 11.5135 -3.8471 -3.96382
2 15.3361 -3.86923 -3.86832
2 19.0032 -3.79584 -3.86696
2 22.8457 -3.91325 -3.98387
3 -22.793 -0.181831 -3.66227
3 -19.0143 -0.0243712 -3.67543
2 -15.1971 -0.0940333 -3.70733
3 -11.5157 -0.130801 -3.85907
2 -7.71225 -0.114925 -3.8449
2 -3.96523 -0.102327 -3.96979
2 -0.0242921 -0.0025203 -3.91259
3 3.84053 -0.164924 -3.83725
2 7.73031 -0.10548 -3.90129
2 11.4906 -0.0836207 -3.98476
1 15.2856 -0.00241192 -3.83682
1 19.0832 -0.0574961 -3.88761
2 22.5777 0.00598561 -4.04185
1 -22.5921 4.03056 -3.75384
1 -19.1722 3.67662 -3.67606
3 -15.1153 3.80182 -3.74408
1 -11.4464 3.71235 -3.68631
2 -7.70548 3.76351 -3.73561
1 -3.77479 3.82202 -3.83181
2 -0.0804874 3.8205 -3.87177
1 3.82399 3.90264 -3.89968
1 7.60329 3.66949 -3.7507
2 11.5002 3.85497 -3.7168
2 15.2245 3.78104 -3.88922
2 19.1792 3.92844 -3.84582
1 22.7395 3.75678 -3.85031
2 -19.3351 7.32036 -3.70551
3 -15.114 7.66266 -3.75704
3 -11.3042 7.54131 -3.67346
3 -7.66153 7.48469 -3.89233
3 -3.77793 7.55513 -3.74781
2 0.000617396 7.45365 -3.68099
2 3.61473 7.58397 -3.81349
1 7.65826 7.64366 -3.67584
3 11.4523 7.60517 -3.75136
2 15.1887 7.79792 -3.76469
1 19.0655 7.78936 -3.93586
2 -19.8017 11.6106 -4.19759
1 -15.3178 11.3689 -3.77095
3 -11.3488 11.3748 -3.78311
1 -7.71155 11.447 -3.70191
1 -3.80462 11.2281 -3.67303
2 -0.200436 11.3927 -3.67
2 3.90473 11.4435 -3.59317
1 7.62659 11.4047 -3.77243
3 11.4598 11.5392 -3.65616
2 15.1993 11.5592 -3.75334
3 18.8489 11.5655 -3.8662
2 -15.4016 15.2037 -3.97726
3 -11.3163 15.145 -3.77388
1 -7.74456 15.0772 -3.59531
3 -3.77783 15.1917 -3.75052
2 -0.117986 15.1488 -3.79502
1 3.7676 15.1326 -3.72813
1 7.71959 15.2044 -3.7866
2 11.5466 15.1778 -3.59341
1 15.4384 15.3975 -3.66453
3 -11.4261 18.9063 -3.7898
1 -7.69644 18.9039 -3.67301
1 -3.95221 18.9041 -3.70092
1 -0.0721291 18.983 -3.89633
2 3.78904 19.0498 -3.66256
2 7.59544 18.9719 -3.53792
2 11.4664 18.9297 -3.57932
3 -3.95323 22.5195 -3.65121
3 0.0534594 22.6013 -3.70556
2 3.78465 22.7919 -3.49485
2 -7.44192 -22.6451 -0.124051
3 -3.76889 -22.67 -0.144614
1 -0.00735039 -22.6256 -0.117431
2 3.96811 -22.7779 0.00172445
2 7.4581 -22.6645 -0.241769
3 -11.1959 -18.9116 -0.189095
3 -7.54051 -18.9652 -0.192482
1 -3.76133 -18.9782 -0.14253
1 -0.0201144 -19.0224 -0.287639
3 3.8041 -18.8744 -0.166432
2 7.59004 -18.9827 -0.194007
3 11.3261 -19.017 -0.0434086
1 -15.0392 -15.1274 -0.155422
2 -11.4469 -15.1727 -0.0726212
3 -7.65361 -15.2092 -0.116723
1 -3.76587 -15.1368 -0.09109
2 -0.0559694 -15.2388 -0.0773965
2 3.8439 -15.0531 -0.251575
2 7.62321 -15.3345 0.0125522
2 11.4308 -15.2181 -0.115691
1 15.2515 -15.1785 0.18326
2 -19.0929 -11.6311 -0.139709
3 -15.2326 -11.4383 -0.0550654
2 -11.3892 -11.4193 -0.122069
3 -7.59324 -11.3041 -0.097454
2 -3.87247 -11.3208 -0.237672
2 0.00573172 -11.3466 -0.201728
3 3.84635 -11.3799 -0.196274
2 7.59144 -11.3203 -0.122178
3 11.3578 -11.3641 0.0295419
1 15.2914 -11.4008 0.0266117
1 18.9975 -11.4692 0.0900948
3 -22.4554 -7.74882 0.0941468
3 -18.9234 -7.70767 0.148594
2 -15.224 -7.5597 -0.0846751
1 -11.4136 -7.62171 -0.0698719
3 -7.56187 -7.55222 0.0122706
1 -3.79854 -7.53847 -0.148414
2 0.0278596 -7.54986 -0.110311
2 3.82624 -7.69027 -0.186178
2 7.70296 -7.65431 -0.09699
2 11.3565 -7.565 0.0163521
1 15.204 -7.58384 -0.0548253
2 19.081 -7.6169 -0.222019
2 22.6356 -7.40674 -0.298454
2 -22.6094 -3.95948 0.178261
3 -18.9349 -3.84234 0.192745
3 -15.0438 -3.81038 0.0910651
2 -11.4068 -3.85221 0.00869137
2 -7.65398 -3.7496 0.0757917
1 -3.80309 -3.80707 -0.0863643
1 0.0465492 -3.77792 -0.117764
3 3.76757 -3.83224 -0.119616
1 7.66665 -3.81826 -0.023307
2 11.4526 -3.8201 -0.142968
3 15.2151 -3.93578 -0.0798222
2 18.9497 -3.72031 -0.139321
2 22.8139 -3.87504 -0.0364087
2 -22.7042 -0.00869603 0.00629721
1 -19.0092 0.0670268 0.135503
2 -15.0207 -0.0251904 -0.0211677
3 -11.2665 -0.147842 -0.0326768
2 -7.536 0.0540363 0.130985
2 -3.80739 -0.146571 -0.0471199
1 -0.0461486 0.00171258 -0.0433935
2 3.86387 0.0486878 -0.0765557
3 7.87211 0.0441036 -0.0306192
2 11.494 -0.0560217 -0.0795732
1 15.2687 -0.0641657 -0.124684
1 19.0623 0.0937035 -0.130632
3 22.8853 -0.0579864 -0.0965105
3 -22.7958 3.49618 0.175385
2 -18.9589 3.80151 0.0313386
1 -15.122 3.72663 0.0234455
2 -11.3799 3.79339 -0.0730653
3 -7.62176 3.81371 0.00439062
2 -3.7738 3.79547 0.0607177
1 -0.0464749 3.77438 0.105446
1 3.88246 3.8115 0.096666
1 7.60422 3.82589 -0.0221084
3 11.4522 3.6655 0.114988
1 15.2239 3.93801 -0.0318613
1 19.0943 4.12025 0.0209603
1 22.862 3.7692 -0.0276985
1 -23.0567 7.34787 0.109892
1 -19.3115 7.6342 0.121974
3 -15.0942 7.51715 -0.0964459
2 -11.3841 7.7023 -0.00177063
1 -7.65192 7.62335 0.00915314
2 -3.75082 7.51102 0.0707447
3 0.0161698 7.59553 0.0821108
2 3.84972 7.60381 0.113495
3 7.73242 7.47479 0.0944685
1 11.4429 7.64456 -0.0319249
3 15.2958 7.68626 -0.0299668
2 18.975 7.76022 -0.134373
1 23.6506 7.19229 -0.13235
3 -18.9105 11.3899 -0.0424834
2 -15.0946 11.4214 -0.0319844
2 -11.4412 11.2821 0.118027
2 -7.5322 11.2521 0.0858145
3 -3.81716 11.3047 0.135147
2 -0.0450036 11.3444 0.0767691
3 3.82949 11.4608 0.146601
2 7.59726 11.3408 0.0995639
1 11.4771 11.443 -0.00362214
1 15.3077 11.5278 0.0103383
2 19.3391 11.7309 0.132352
2 -15.1648 14.9469 -0.105815
3 -11.3644 15.1363 -0.00707886
1 -7.61248 15.2246 -0.00986009
3 -3.95042 15.1452 0.0915821
1 -0.0973852 15.1114 0.134131
1 3.78346 15.2277 0.096429
2 7.67667 15.1187 -0.00971636
2 11.5525 15.2916 -0.045133
3 15.2345 15.3685 0.240353
1 -11.6174 19.1976 -0.0135396
1 -7.76602 19.099 0.1454
1 -3.88708 19.0334 0.0782265
2 -0.045 18.814 -0.0465512
3 3.78733 18.9454 0.200548
3 7.59333 19.1156 0.331466
2 11.4 19.0346 0.162449
2 -7.51303 22.8206 0.0272644
2 -3.77059 22.7374 -0.109278
2 -0.0525527 22.8197 -0.0121114
3 3.72178 22.7553 0.16344
3 7.44617 22.5597 0.280323
2 -3.70658 -22.4258 3.71015
1 -6.2055e-05 -22.6694 3.60837
2 3.8265 -22.6278 3.76751
3 -11.2479 -18.9086 3.53994
3 -7.58857 -18.8428 3.62418
3 -3.80359 -18.7817 3.7133
2 0.0119231 -18.8481 3.71191
2 3.75879 -18.8954 3.83896
2 7.68003 -18.873 3.64759
2 11.5292 -19.3937 3.97362
3 -15.1706 -15.3152 3.90095
3 -11.306 -15.1894 3.74743
1 -7.66304 -15.0766 3.74574
2 -3.81464 -15.1346 3.76093
2 -0.0502406 -15.1408 3.54366
2 3.85635 -15.0553 3.65348
3 7.50666 -15.1209 3.70657
3 11.2942 -15.0627 3.72397
1 16.158 -16.5296 3.84829
1 -19.431 -11.9636 4.31356
1 -15.1396 -11.3307 3.92977
2 -11.3459 -11.3958 3.79985
1 -7.66091 -11.2384 3.73864
2 -3.80366 -11.2654 3.75052
1 -0.036843 -11.3729 3.72068
1 3.894 -11.2874 3.66412
2 7.56473 -11.2578 3.68537
1 11.2188 -11.3351 3.70261
2 15.2047 -11.3769 3.82498
2 19.0888 -11.528 3.89726
1 -18.848 -7.63572 3.95495
1 -15.1742 -7.53752 3.99874
1 -11.3332 -7.58225 3.82106
1 -7.54153 -7.52634 3.71402
2 -3.80705 -7.34968 3.88409
2 0.0108662 -7.60137 3.69717
2 3.82134 -7.57133 3.68573
3 7.48518 -7.57411 3.62268
2 11.3138 -7.55468 3.74189
2 15.3422 -7.4239 3.70701
1 19.2093 -7.50977 3.88503
2 -22.7979 -4.01464 3.9934
3 -18.7523 -3.77043 3.86344
1 -15.0874 -3.81739 3.84704
3 -11.3017 -3.83829 3.78626
1 -7.63172 -3.68412 3.71599
1 -3.77424 -3.67216 3.74575
1 -0.0119266 -3.8605 3.84007
2 3.87097 -3.65945 3.76111
3 7.64238 -3.86614 3.68846
2 11.4768 -3.82109 3.89798
3 15.2728 -3.92596 3.63954
2 18.9655 -3.73541 3.79731
1 22.5705 -4.12329 3.75896
3 -22.6368 -0.183272 3.68446
3 -18.8954 -0.0058329 3.7842
2 -15.027 0.0769571 3.81696
3 -11.4054 0.0486946 3.78973
2 -7.64101 0.0405059 3.82849
3 -3.82762 0.0882685 3.88476
3 0.0295257 0.0504266 3.7447
2 3.7252 -0.0894624 3.81289
1 7.5545 -0.0902275 3.78707
2 11.4778 -0.0729379 3.70267
2 15.3547 0.0648831 3.86001
2 18.9278 0.02541 3.76604
1 22.7713 0.0434376 3.73941
2 -22.9267 3.81623 4.14181
1 -18.9946 3.78299 3.85323
1 -15.1963 3.75496 3.78282
3 -11.4939 3.75783 3.85205
3 -7.67919 3.86228 3.85793
1 -3.79667 3.88324 3.89301
3 0.00108292 3.78798 3.81347
2 3.95936 3.83935 3.83287
2 7.63021 3.88803 3.90023
2 11.5486 3.75231 3.75448
3 15.268 3.87932 3.84756
2 19.0472 4.00272 3.93676
2 22.634 3.90488 3.71174
1 -18.963 7.60038 3.79884
1 -15.1757 7.57578 3.87224
2 -11.4037 7.68013 4.00645
3 -7.65602 7.68658 3.90125
1 -3.72633 7.59854 3.87656
3 -0.0145468 7.60455 3.89331
3 3.98132 7.65846 3.87718
2 7.63702 7.58767 3.90376
2 11.4608 7.6744 3.95568
2 15.202 7.76469 3.88714
3 18.9723 7.64705 3.94156
1 -19.001 11.4349 3.84131
2 -15.1549 11.493 3.78363
3 -11.4077 11.4422 3.88895
2 -7.58234 11.2854 3.90584
1 -3.82231 11.3665 3.98668
2 0.00255165 11.4281 4.02433
1 3.83952 11.4384 3.96539
2 7.62876 11.56 4.05458
1 11.4371 11.4707 3.87082
1 15.1346 11.507 3.96159
3 19.018 11.5757 4.11479
2 -15.2258 15.2741 3.84165
2 -11.4044 15.0402 3.90982
1 -7.60705 15.1095 3.89529
2 -3.83957 15.1503 3.99892
2 -0.214145 15.3456 3.90425
3 3.73809 15.2822 4.00449
3 7.62896 15.3889 3.92811
2 11.4219 15.2831 3.84319
2 15.2836 15.2999 4.07359
3 -11.6568 19.0511 3.93493
1 -7.79197 19.1757 3.8543
2 -3.7211 18.8634 3.98453
2 -0.100822 18.9971 3.83375
1 3.77732 19.076 4.04579
1 7.75517 19.0192 4.11719
2 11.8857 19.4727 4.43731
3 -3.95694 22.6797 3.91948
3 -0.015926 22.5995 3.99698
2 3.87717 22.5033 4.30575
2 0.023564 -22.5237 7.42059
2 -11.2234 -19.0327 7.50646
3 -7.48691 -18.7558 7.36238
2 -3.77493 -18.9739 7.60191
1 0.129625 -18.9725 7.58159
3 3.80496 -19.0149 7.44854
1 7.66375 -18.7914 7.47653
2 11.3059 -18.8111 7.56076
2 -14.8394 -15.0642 7.4733
1 -11.3498 -15.0269 7.50451
2 -7.6013 -15.1053 7.46122
1 -3.75836 -15.1512 7.54272
2 0.0593431 -15.1035 7.54668
3 3.84864 -14.889 7.47356
2 7.54267 -15.1645 7.48565
3 11.2474 -15.1289 7.7105
3 14.9841 -14.9681 7.67281
1 -18.9037 -11.7938 8.09338
3 -15.1659 -11.4308 7.70682
2 -11.2212 -11.3374 7.61182
3 -7.69393 -11.2437 7.53863
3 -3.80838 -11.375 7.67179
2 0.0480516 -11.2605 7.46532
2 3.80523 -11.0953 7.44756
2 7.54254 -11.2433 7.44781
3 11.235 -11.3011 7.50418
2 15.0844 -11.1829 7.54417
3 18.7281 -11.4021 7.63409
2 -18.971 -7.6845 7.58475
1 -15.2115 -7.64002 7.75775
2 -11.2648 -7.44903 7.73121
2 -7.53823 -7.56273 7.66946
1 -3.85114 -7.56248 7.60724
3 -0.076552 -7.53759 7.52284
1 3.81673 -7.48845 7.51395
3 7.58337 -7.37398 7.35331
3 11.3367 -7.49149 7.41497
1 15.174 -7.49992 7.39458
2 18.8218 -7.61994 7.59202
1 -18.9916 -3.68728 7.55804
2 -15.1866 -3.82557 7.77222
3 -11.2884 -3.72131 7.66871
1 -7.58692 -3.68241 7.62603
3 -3.73138 -3.704 7.69374
3 -0.111635 -3.79241 7.65334
2 3.72783 -3.75133 7.586
2 7.56369 -3.80287 7.45284
1 11.4914 -3.75457 7.54889
3 15.2782 -3.77829 7.51626
2 18.8895 -3.74221 7.5388
3 -22.7748 -0.11186 7.48043
2 -19.0117 0.101761 7.59613
3 -15.1729 -0.0262722 7.48553
2 -11.3296 0.0543167 7.6528
2 -7.72999 0.0909838 7.69512
2 -3.82776 0.218567 7.68156
2 -0.0505339 0.115207 7.48889
3 3.75366 0.126779 7.53714
3 7.60713 -0.018972 7.50512
2 11.6015 -0.05674 7.52728
2 15.2673 -0.0260792 7.55215
1 18.8663 0.0788772 7.63792
1 22.6611 -0.0454024 7.32842
2 -18.9201 3.78508 7.73192
1 -15.1837 3.82394 7.56182
1 -11.4533 3.91185 7.64152
3 -7.8 3.90634 7.64565
3 -3.85608 3.96361 7.67884
2 0.060665 3.81346 7.6216
2 3.75309 3.8712 7.45596
1 7.67123 3.94079 7.691
1 11.4215 3.87382 7.56234
3 15.1616 3.88158 7.60181
1 18.9847 3.89227 7.71717
2 -18.9572 7.4938 7.56695
3 -15.1762 7.69771 7.65804
2 -11.3827 7.67069 7.5395
2 -7.71448 7.69679 7.61475
3 -3.85576 7.60816 7.71009
3 -0.0269266 7.62784 7.68046
1 3.81705 7.64997 7.68248
2 7.66825 7.64954 7.79475
1 11.3848 7.58386 7.66407
3 15.2278 7.55365 7.6032
2 19.0461 7.59496 7.77357
1 -18.8251 11.489 7.7181
2 -15.2777 11.381 7.54298
2 -11.4453 11.3835 7.67045
1 -7.68706 11.3995 7.74617
2 -3.88456 11.396 7.68514
2 0.0464446 11.4162 7.75821
1 3.83719 11.4371 7.96931
1 7.58954 11.442 7.9226
2 11.3992 11.2885 7.70578
2 15.0816 11.5044 7.76141
1 19.0361 11.4073 7.99979
2 -15.2457 15.3061 8.04585
3 -11.5525 15.2685 7.66897
3 -7.57073 15.2556 7.82172
1 -3.9319 15.1831 7.79912
2 -0.0347783 15.1913 7.79567
2 3.78599 15.3489 7.72241
2 7.52921 15.1708 7.76548
2 11.6707 15.4734 7.97295
1 15.4356 15.2514 8.28108
1 -11.517 18.9024 8.00107
1 -7.49148 19.0453 7.52428
2 -3.93502 18.9976 7.84902
2 -0.100028 19.0833 7.70846
3 3.66179 18.8202 7.9026
1 7.59162 19.0938 7.88691
1 11.4254 18.8363 8.47703
3 -0.0104135 22.5255 7.76401
2 -7.76509 -19.0483 11.3509
2 -3.94801 -18.9828 11.4227
2 0.154944 -18.9179 11.3975
2 4.03572 -18.8675 11.1613
2 7.46156 -18.6756 11.1726
2 -11.3312 -15.1541 11.4825
2 -7.62307 -15.0627 11.3716
3 -3.76401 -15.3687 11.352
3 0.142302 -15.0215 11.2782
2 3.81683 -15.0185 11.1746
3 7.45923 -15.1037 11.2991
2 11.2569 -15.0579 11.3725
1 -15.2182 -11.3287 11.4028
2 -11.4321 -11.3682 11.4442
2 -7.68858 -11.3891 11.5367
2 -3.71725 -11.2931 11.3436
2 -0.0295502 -11.2048 11.2883
2 3.84033 -11.3175 11.3816
1 7.52058 -11.4245 11.5218
2 11.2806 -11.3313 11.4697
2 15.2179 -11.5246 11.591
1 -18.9041 -7.74433 11.5018
1 -15.28 -7.62515 11.4596
1 -11.3435 -7.5464 11.3394
2 -7.56973 -7.66418 11.3532
3 -3.7577 -7.44302 11.4436
2 -0.0445692 -7.50234 11.3463
2 3.83537 -7.38282 11.344
2 7.48941 -7.53158 11.2926
1 11.38 -7.57166 11.4188
1 14.937 -7.56592 11.3106
1 18.6176 -7.6118 11.353
2 -19.1589 -4.28883 11.6982
2 -15.2958 -3.74952 11.5613
3 -11.3888 -3.7724 11.4996
1 -7.53785 -3.71022 11.4224
2 -3.79261 -3.79229 11.5058
2 -0.0372695 -3.73947 11.4352
2 3.82161 -3.68737 11.3382
3 7.58696 -3.68518 11.3724
1 11.3275 -3.69213 11.4722
3 15.0914 -3.88552 11.3716
3 18.9025 -3.75994 11.4151
1 -19.8316 -0.0723349 12.3279
2 -15.3344 0.0893712 11.4118
2 -11.4349 0.168782 11.3323
1 -7.66432 0.144344 11.4828
1 -3.81495 0.197247 11.407
2 -0.111849 0.038836 11.3836
1 3.81228 0.0793079 11.377
2 7.71306 0.0854358 11.4671
1 11.3541 0.0117625 11.2955
2 15.1852 0.0669486 11.4018
3 18.9798 0.101547 11.2022
2 -18.9964 3.94792 11.4124
2 -15.2453 3.95064 11.4946
2 -11.5704 3.81937 11.4729
2 -7.71738 3.86059 11.5048
2 -3.86044 3.92436 11.4336
2 -0.0138705 3.94777 11.4985
2 3.66599 3.84539 11.5008
2 7.50891 3.76086 11.5279
2 11.4237 3.81794 11.4854
1 15.2836 3.97633 11.3195
3 18.8793 3.82137 11.3796
2 -18.9466 7.65725 11.3109
2 -15.2482 7.66433 11.4818
2 -11.4402 7.69332 11.5682
3 -7.6751 7.66801 11.5357
1 -3.79316 7.71979 11.4686
2 0.0147722 7.75781 11.464
3 3.89182 7.5549 11.5318
1 7.62802 7.72836 11.5079
2 11.571 7.68004 11.4078
2 15.2067 7.63619 11.3969
2 18.8839 7.66063 11.475
2 -15.2986 11.3854 11.4428
2 -11.4592 11.4214 11.4233
2 -7.66243 11.3502 11.5488
2 -3.90601 11.5171 11.4888
3 -0.201282 11.4413 11.5092
2 3.66958 11.4381 11.693
2 7.72395 11.583 11.7182
2 11.3964 11.5215 11.5131
3 15.1328 11.4489 11.2763
2 -11.5264 15.2389 11.6299
2 -7.63504 15.3718 11.5477
1 -3.86177 15.2161 11.5526
3 -0.0721577 15.1036 11.5068
3 3.76093 15.2081 11.7045
2 7.79044 15.4928 11.7837
2 11.7514 15.2201 12.3017
3 -7.68003 18.8655 11.5887
2 -3.79883 19.035 11.6327
3 -0.0321531 18.9421 11.6449
2 3.81329 18.9999 11.6204
2 7.5645 19.012 11.772
2 -7.8141 -15.0722 15.3428
2 -3.79944 -15.3237 15.4755
1 0.0615401 -14.9101 15.265
2 3.70614 -14.9322 15.2733
1 7.88113 -15.1626 15.2115
2 -11.4248 -11.3477 15.2782
2 -7.51579 -11.3483 15.1054
2 -3.92163 -11.3364 15.1263
3 -0.129206 -11.2708 15.3698
1 3.65638 -11.2345 15.1598
3 7.53349 -11.2414 15.2547
3 11.2746 -11.3034 15.2576
3 -15.024 -7.64791 15.0389
1 -11.4955 -7.62044 15.2997
1 -7.62678 -7.49872 15.1296
2 -3.86382 -7.51696 15.1971
3 -0.0402485 -7.51169 15.224
2 3.76027 -7.47512 15.1414
2 7.4026 -7.51882 15.0965
1 11.394 -7.56155 15.3078
1 15.1273 -7.60261 15.1654
2 -15.4031 -3.71824 15.4839
2 -11.3855 -3.70434 15.2842
3 -7.61251 -3.71757 15.1478
1 -3.78069 -3.74234 15.2064
1 -0.0908489 -3.6612 15.2653
3 3.87269 -3.73892 15.3148
1 7.58453 -3.74164 15.2754
1 11.4109 -3.90214 15.2672
2 15.2594 -3.86816 15.2136
3 -15.2615 0.193151 15.0873
1 -11.4187 0.135959 15.2931
3 -7.59657 0.170083 15.1302
2 -3.9612 -0.00157361 15.2646
2 -0.0862398 0.0704404 15.3133
1 3.76092 0.0324066 15.2181
3 7.6324 0.101737 15.1813
2 11.3558 -0.0656946 15.2035
2 15.1242 0.0671828 15.2936
2 -15.3151 4.05493 15.2272
1 -11.5024 3.9097 15.1842
1 -7.74577 4.00482 15.2361
1 -3.85878 3.95593 15.2127
3 0.00165791 3.79727 15.2826
1 3.72381 3.92184 15.2624
3 7.38601 3.88848 15.3329
2 11.3625 3.71063 15.1267
2 15.5804 3.92223 15.4383
1 -15.2977 7.85757 15.2613
1 -11.5182 7.78765 15.2057
1 -7.71126 7.66675 15.3044
2 -3.79146 7.68378 15.2339
2 0.123758 7.69593 15.2893
2 3.86707 7.73475 15.4343
2 7.6235 7.87366 15.4519
2 11.629 7.72336 15.531
2 15.0897 8.25126 15.543
2 -11.7625 11.614 15.4807
1 -7.79056 11.3939 15.3831
3 -3.95097 11.5816 15.4578
2 -0.052312 11.3703 15.3773
3 3.6675 11.4513 15.5404
2 7.57462 11.6506 15.5971
2 11.4934 11.7278 15.8799
2 -8.24564 15.8788 15.8967
3 -3.92442 15.1082 15.2832
3 -0.132498 15.1829 15.4625
1 3.6007 15.3654 15.6692
2 7.82798 15.0727 15.7352
3 -7.70635 -11.2257 19.0064
3 -3.84864 -11.369 18.9068
1 0.0766381 -11.6282 19.3465
2 3.94265 -11.3534 19.187
1 7.68902 -11.3525 18.9717
2 -11.4994 -7.77042 19.0593
2 -7.82537 -6.91388 19.1045
3 -3.92503 -7.43261 19.2121
1 -0.0113454 -7.59349 19.1193
2 3.83426 -7.47259 19.1139
3 7.56576 -7.58337 18.9641
2 11.3114 -7.71779 18.8552
2 -11.6673 -3.61699 19.3084
2 -7.81524 -4.05706 19.2603
1 -3.93022 -3.60013 19.0328
3 -0.141272 -3.78849 19.0785
3 3.84836 -3.7972 19.1351
2 7.65807 -3.80367 19.0171
2 11.6017 -3.88658 19.1015
1 -11.4592 0.161416 19.1619
2 -7.7182 0.158702 19.0194
1 -3.89812 0.224106 19.0416
3 -0.0251917 0.178242 19.1749
1 3.79366 0.174 19.049
1 7.56757 0.0373731 19.0416
1 11.3209 0.0937968 19.0591
2 -11.4832 3.90888 19.1268
3 -7.83613 4.02252 19.1482
2 -4.00915 3.9602 19.0798
2 -0.0169028 3.76087 19.2112
2 3.7366 3.7403 19.1312
1 7.64706 3.70495 18.965
1 11.5975 3.96873 19.1659
2 -11.5647 7.82239 19.1497
3 -7.63399 7.74884 19.0525
2 -3.90842 7.70893 18.9557
2 0.12321 7.51362 18.9618
2 3.88923 7.62631 19.3166
3 7.62174 7.54128 19.0652
3 11.3209 7.80924 19.1029
2 -7.90688 11.7482 18.9089
2 -4.31609 11.6819 19.6312
1 -0.0383361 11.5464 19.5943
3 3.74522 11.492 19.3222
2 7.53911 11.3145 19.4437
2 0.0379642 -7.46427 22.8621
2 -4.18306 -3.59441 22.6532
1 0.0341213 -3.44595 23.3006
1 3.78599 -3.64755 22.8052
2 -7.44597 0.348535 22.8739
1 -3.77392 0.234363 22.7033
2 -0.130088 0.146493 22.796
2 3.68375 0.14709 22.7875
3 7.42618 0.0831973 22.6679
2 -4.07418 4.04362 22.8115
2 -0.081953 3.91757 22.8698
1 3.66241 3.81563 23.0413
2 -0.0674808 7.58683 22.8909
2 -5.74074 -5.76903 -22.7928
2 -1.73585 -5.7189 -22.7914
2 1.89115 -5.76682 -22.7057
2 5.67325 -5.79505 -22.6237
3 -5.64777 -1.84742 -22.6597
3 -1.78752 -2.18369 -22.7372
3 2.01918 -1.94897 -22.7054
1 5.57394 -1.85384 -22.6393
1 -5.75268 1.80234 -22.584
2 -1.87105 1.7448 -22.5725
3 1.96123 1.84701 -22.5218
1 5.74458 1.75676 -22.5177
3 -5.87319 5.71025 -22.7506
3 -1.82122 5.4563 -22.8994
1 1.93183 5.48867 -22.715
3 5.70694 5.48417 -22.5343
2 -5.97732 -13.5509 -18.89
3 -1.88252 -13.4344 -18.9256
2 2.15403 -13.4765 -19.1103
2 6.25771 -13.6733 -19.2233
2 -9.73271 -9.67625 -19.3025
2 -5.72336 -9.94853 -19.3125
3 -1.82053 -9.55082 -19.236
3 1.97549 -9.48773 -19.0627
3 5.75783 -9.68442 -19.0475
1 9.63121 -9.68058 -18.8497
2 -13.4234 -6.02627 -18.9262
2 -9.66909 -5.82771 -19.2475
3 -5.7711 -5.82022 -19.1234
3 -1.80723 -5.88346 -19.0308
1 1.98298 -5.7319 -19.0795