4321
 Atoms. Timestep: 4193
3 0.0441273 -7.80607 -23.0006
3 -3.56013 -4.15008 -22.9531
3 -0.0115419 -4.07563 -23.016
1 3.99727 -4.1057 -22.9253
3 -7.61572 -0.235053 -22.9372
2 -3.8561 -0.113751 -22.9723
3 -0.203135 -0.102523 -23.0026
2 3.76238 0.194066 -23.0505
3 7.97925 0.00689917 -22.5947
2 -3.8637 3.78954 -22.9737
3 0.0957894 3.83829 -23.1263
3 3.93205 3.73705 -22.9837
2 -0.0290481 7.80061 -23.0836
3 -7.78272 -11.6637 -19.0631
3 -3.76304 -11.9763 -19.1363
1 0.0414733 -11.7918 -19.326
2 3.89493 -11.8506 -19.2217
3 7.9937 -11.5524 -19.0877
3 -11.524 -8.00301 -19.2603
2 -7.57145 -7.87854 -19.1935
2 -3.76103 -7.90748 -19.5019
3 0.10615 -7.94648 -19.2088
1 3.66672 -7.85672 -19.3603
2 7.63719 -7.81661 -19.2424
2 11.5122 -7.91864 -18.9687
2 -11.9942 -4.03012 -19.6463
2 -7.72164 -3.90673 -19.4692
2 -3.85943 -4.06514 -19.5398
1 -0.0604891 -4.03256 -19.4252
3 3.85744 -3.98812 -19.5208
2 7.82869 -3.88475 -19.1533
2 11.5935 -3.98864 -19.0258
2 -11.6285 0.262149 -19.5403
1 -7.83691 -0.111921 -19.4469
2 -3.74345 0.12563 -19.4219
1 0.0303971 -0.187781 -19.4378
3 3.78114 -0.0508221 -19.4204
2 7.70285 0.118904 -19.338
3 11.4504 -0.0936108 -19.1727
3 -11.6341 3.78226 -19.416
2 -7.71907 3.69034 -19.6639
2 -3.99506 3.82159 -19.6998
3 0.0317276 3.72285 -19.4852
2 3.81355 3.76125 -19.1842
3 7.70889 3.78087 -19.4638
3 11.602 3.95645 -19.3326
3 -11.442 7.88952 -19.1429
2 -7.48539 8.03574 -19.2832
2 -3.8585 8.08248 -19.4229
2 -0.150973 7.69228 -19.4894
3 3.70879 7.59192 -19.422
2 7.59024 7.79206 -19.2982
2 11.4796 8.02583 -19.3429
3 -7.82138 11.7563 -19.1428
2 -4.01356 11.7443 -19.4399
2 -0.0552461 11.62 -19.5943
2 3.88499 11.8194 -19.3097
3 7.8915 11.4072 -19.1374
3 -7.52112 -15.3884 -15.3064
1 -3.56948 -15.8195 -15.6832
3 0.162791 -15.4414 -15.3499
2 4.01 -15.3059 -15.3723
3 7.77043 -15.3716 -15.4511
3 -11.6614 -11.9065 -15.3117
2 -7.74315 -12.1669 -15.5376
3 -3.88096 -11.8131 -15.402
2 0.152714 -11.8409 -15.5595
1 3.98089 -11.6126 -15.3993
2 7.7015 -11.5925 -15.3665
1 12.164 -12.0005 -15.5947
3 -15.3002 -7.79621 -15.3586
1 -11.7896 -7.93667 -15.5271
2 -7.8295 -7.98734 -15.4424
2 -3.88469 -7.84847 -15.3841
1 -0.157623 -7.932 -15.5902
1 3.72384 -7.85696 -15.4946
1 7.83647 -7.75684 -15.4765
2 11.4142 -7.88163 -15.5172
3 15.3288 -7.66687 -15.3082
2 -16.0166 -3.87386 -15.9341
2 -11.939 -4.1066 -15.6924
1 -7.63586 -4.01621 -15.8012
1 -3.89856 -3.85484 -15.8457
2 -0.0321327 -4.08208 -15.7267
1 3.69218 -4.12828 -15.5839
2 7.58405 -3.92413 -15.547
2 11.5126 -3.90814 -15.3542
2 15.5071 -3.88187 -15.4158
1 -15.2684 -0.119774 -15.4238
2 -11.6002 0.0230641 -15.8339
2 -7.80058 0.087561 -15.7093
1 -4.04559 -0.0113245 -15.8352
3 -0.0956027 -0.0881859 -15.6676
3 3.82317 -0.122957 -15.5249
2 7.68135 0.00177474 -15.6218
2 11.3896 0.143453 -15.4514
2 15.2162 -0.123266 -15.2776
3 -15.4741 3.93023 -15.5061
2 -11.6227 3.82967 -15.7923
2 -7.73311 3.86959 -15.8073
2 -3.75675 3.92937 -15.8008
1 -0.134626 3.9118 -15.4227
2 3.99208 3.71966 -15.7288
3 7.77007 3.90144 -15.6183
2 11.5826 3.82634 -15.5349
2 15.3508 3.83581 -15.5279
3 -15.2194 7.5929 -15.3767
1 -11.5016 7.54575 -15.4194
3 -7.84406 7.97479 -15.6463
1 -3.87045 7.81542 -15.5762
2 0.0687626 7.81491 -15.6294
2 3.66819 7.86548 -15.7068
1 7.72661 7.65624 -15.7454
2 11.4605 7.83614 -15.6034
3 15.1969 8.00063 -15.2357
1 -11.7759 11.7984 -15.7341
2 -7.84257 11.9517 -15.8105
3 -3.89979 11.8399 -15.6462
2 -0.0954339 11.8121 -15.827
1 3.72846 11.8537 -15.6079
2 7.53695 11.6314 -15.5139
3 11.4521 11.5484 -15.3808
3 -7.84893 15.4079 -15.1853
1 -3.95552 15.6973 -15.5899
1 -0.0561479 15.5772 -15.5833
1 3.67348 15.8772 -16.1585
3 7.5245 15.3462 -15.5018
3 -7.8028 -19.1184 -11.7591
3 -3.83942 -19.3473 -11.7332
1 -0.10202 -19.3738 -11.535
3 3.7733 -19.1514 -11.5854
2 8.05278 -19.0319 -11.502
2 -11.7589 -15.5212 -11.6329
2 -7.73577 -15.432 -11.624
1 -3.80731 -15.523 -11.7255
2 -0.0138172 -15.6005 -11.639
1 3.80372 -15.5685 -11.5297
2 7.75439 -15.6719 -11.46
2 11.8934 -15.431 -11.4446
2 -15.3109 -11.7208 -11.6682
2 -11.6015 -11.8082 -11.6797
2 -7.8091 -11.8707 -11.5727
2 -3.91829 -11.6486 -11.7058
2 -0.0349371 -11.6236 -11.6299
2 3.73117 -11.6034 -11.7353
2 7.83005 -11.7499 -11.6128
3 11.759 -11.6416 -11.5802
3 15.4632 -11.4227 -11.3314
1 -19.0808 -7.79844 -11.6713
2 -15.463 -7.76355 -11.7164
3 -11.5222 -8.09713 -11.7689
1 -7.91904 -7.82742 -11.7907
2 -3.95144 -7.8774 -11.8093
2 -0.106704 -7.82576 -11.8052
1 3.8102 -7.87152 -11.6832
1 7.72353 -7.62246 -11.7538
1 11.5412 -7.63272 -11.8092
2 15.3904 -7.73531 -11.6633
2 19.3251 -7.62077 -11.4797
2 -19.0867 -4.04915 -11.5908
1 -15.5295 -3.95211 -11.7819
1 -11.5719 -4.07355 -11.7193
1 -7.85688 -3.98397 -11.8678
2 -3.97726 -3.96087 -11.872
2 -0.161377 -3.90639 -11.8194
2 3.63995 -4.06677 -11.8264
1 7.72452 -3.79228 -11.6423
2 11.4718 -3.60728 -11.6941
2 15.5315 -3.81623 -11.6512
3 18.9851 -3.76775 -11.5034
3 -19.3467 -0.0429617 -11.3941
1 -15.4524 0.0734713 -11.7691
2 -11.4569 -0.0775198 -11.8643
2 -8.07861 0.121405 -11.8038
1 -4.1463 -0.115549 -11.681
2 -0.247459 0.19404 -11.8736
2 3.63795 -0.104906 -11.5992
2 7.61959 0.144748 -11.8486
2 11.2963 0.213874 -11.6541
3 15.2648 0.0184818 -11.7784
2 19.1004 -0.026605 -11.8465
1 -19.3617 4.1967 -11.769
2 -15.3658 3.89561 -11.7425
1 -11.5665 3.94196 -11.8631
1 -8.08033 3.72798 -11.9629
2 -4.15638 3.8097 -11.9633
2 -0.0685018 3.90313 -11.7979
2 3.7618 3.76238 -11.8064
2 7.59813 3.93428 -11.7975
1 11.3385 3.95834 -11.609
1 15.2463 3.7791 -11.6185
3 18.9305 3.95735 -11.6896
1 -18.6933 7.81634 -11.5728
2 -15.4542 7.6744 -11.7102
1 -11.5165 7.78284 -11.8254
2 -7.90211 7.68921 -11.779
1 -3.92096 7.85932 -11.8183
2 0.211883 8.03301 -11.7951
1 3.88213 7.77928 -11.8286
2 7.49542 7.72229 -11.6618
1 11.4797 7.76835 -11.8599
2 15.1869 7.82146 -11.7523
3 18.9056 7.78293 -11.7922
3 -15.3859 11.6381 -11.7371
2 -11.4706 11.6491 -11.9986
2 -7.56755 11.5419 -11.8339
2 -3.7615 11.593 -11.7413
1 0.0980623 11.6981 -11.739
3 3.75015 11.6733 -11.7522
1 7.49176 11.5696 -11.5779
2 11.379 11.6256 -11.6773
3 15.1812 11.5881 -11.4902
3 -11.4991 15.5876 -11.7383
1 -7.86775 15.7866 -11.7375
1 -3.90649 15.7936 -11.6079
1 0.0850865 15.7076 -11.8361
3 3.88666 15.5194 -11.6988
3 7.58115 15.2185 -11.6836
2 11.4624 15.345 -11.6143
3 -7.90292 19.3275 -11.6055
3 -4.10726 19.4109 -11.9187
3 0.0341731 19.4043 -11.412
2 3.92782 19.404 -11.6214
3 7.72626 19.0948 -11.5118
2 -0.0160445 -22.7861 -7.52027
3 -11.8924 -19.1066 -7.3155
2 -7.69883 -19.3689 -7.62105
3 -4.02712 -19.2573 -7.79429
2 -0.00566753 -19.5119 -7.74933
2 4.01859 -19.5959 -7.69962
2 8.24045 -19.2781 -7.51848
1 12.143 -19.3246 -8.07276
3 -15.38 -15.5012 -7.7581
1 -11.5708 -15.6692 -7.75414
2 -7.59186 -15.5645 -7.89498
2 -3.8473 -15.6716 -7.79698
3 -0.0815617 -15.7319 -7.73716
2 3.87999 -15.6349 -7.68265
2 7.92134 -15.4215 -7.74962
2 11.8642 -15.2704 -7.73657
1 15.5787 -15.1947 -7.58531
2 -19.144 -11.5464 -7.88525
3 -15.3983 -11.8149 -7.86356
3 -11.7176 -11.4539 -7.82932
1 -7.68546 -11.6781 -7.90158
2 -3.98655 -11.6692 -7.70971
2 -0.124418 -11.7861 -7.84394
2 3.62541 -11.8349 -7.71849
2 7.77357 -11.4445 -7.74815
1 11.5465 -11.402 -7.62794
1 15.4021 -11.4239 -7.63821
3 18.9745 -11.1065 -7.58186
3 -19.0459 -7.83454 -7.88266
2 -15.5072 -7.89307 -7.83067
1 -11.7204 -7.78509 -7.78359
3 -7.81653 -7.72542 -7.91916
2 -3.91098 -7.66433 -7.96444
1 -0.0549663 -7.93254 -7.77103
2 3.78596 -7.69216 -7.98869
1 7.76479 -7.89728 -7.84414
2 11.4377 -7.69677 -8.00694
2 15.3976 -7.75577 -7.6812
1 19.0832 -7.66246 -7.66557
2 -19.205 -3.90393 -7.81589
2 -15.4371 -3.98436 -7.8958
2 -11.5676 -3.91996 -7.84971
2 -7.67846 -3.8496 -7.83099
2 -4.01649 -3.87058 -7.96399
1 -0.154285 -3.76697 -8.02455
1 3.64528 -3.74575 -7.9499
2 7.49599 -3.93828 -7.915
1 11.6658 -3.8149 -7.76408
2 15.2844 -3.67174 -7.76747
1 19.1328 -3.86994 -7.77658
3 -22.7621 -0.144324 -7.48576
3 -18.981 0.115043 -7.6991
2 -15.3597 0.124061 -7.93883
2 -11.7401 -0.0343271 -7.9559
1 -7.82403 -0.1516 -7.88016
2 -3.98483 0.10268 -8.09516
1 -0.302274 0.0588804 -8.05407
1 3.61458 -0.057869 -7.892
2 7.47318 -0.0408935 -7.85744
1 11.3299 0.128177 -7.76552
2 15.3635 0.206746 -7.70281
1 19.1185 0.134625 -7.82398
2 22.6065 0.245034 -7.7899
3 -18.9973 4.04619 -7.82712
2 -15.3139 3.90573 -7.79339
3 -11.4267 4.06369 -7.82018
2 -7.8469 3.80758 -7.78758
1 -4.11214 3.99552 -8.08623
2 -0.196345 3.8939 -8.09343
1 3.59778 3.83984 -7.95258
3 7.59827 3.86284 -7.87641
3 11.4537 3.90137 -7.80486
2 15.2845 3.87175 -7.86293
2 19.0877 4.05886 -7.88982
3 -18.9944 7.94417 -7.79032
1 -15.4105 7.95473 -7.74745
1 -11.5539 7.96072 -7.7685
3 -7.66038 7.78518 -7.94203
2 -3.92062 7.66268 -7.9921
2 -0.0272049 7.87948 -7.8514
2 3.64635 7.64787 -7.96449
3 7.5431 7.51808 -7.91578
2 11.2912 7.5289 -7.745
2 15.3462 7.60685 -7.74325
3 19.0668 7.86644 -7.80241
3 -18.8243 11.7285 -7.90669
2 -15.195 11.4964 -7.88714
1 -11.4785 11.7388 -7.87868
2 -7.75497 11.7835 -7.88133
3 -4.03573 11.699 -7.95807
2 -0.28489 11.6192 -7.91063
2 3.743 11.5025 -7.94038
1 7.45109 11.4165 -7.9245
2 11.4655 11.2846 -7.78816
2 15.275 11.4525 -7.82571
3 18.8537 11.3988 -7.89663
1 -15.1773 15.434 -7.99551
3 -11.4526 15.5464 -7.94583
3 -7.81269 15.5795 -7.86261
2 -3.89226 15.587 -7.95494
2 -0.0339123 15.6998 -7.74584
3 3.94886 15.6786 -7.87529
1 7.7467 15.4553 -7.71458
2 11.4527 15.351 -7.49841
3 15.1689 15.2675 -7.85109
3 -11.4812 19.229 -7.73304
2 -7.88351 19.4916 -7.69006
3 -3.89852 19.5304 -7.82095
2 0.0804963 19.1773 -7.77071
2 3.97923 19.2613 -7.81421
3 7.65992 19.2047 -7.73454
3 11.5572 19.019 -7.58637
3 0.217578 22.7739 -7.64223
3 -3.85575 -22.8805 -3.9226
2 0.0130211 -22.9051 -3.86853
3 4.00828 -22.5254 -3.58378
1 -11.4402 -19.2769 -3.63784
3 -7.68876 -19.3911 -3.90468
1 -3.71883 -19.3691 -3.81536
3 0.100577 -19.3354 -3.85918
2 4.14997 -19.7981 -3.84767
2 7.89451 -19.3801 -4.06553
2 12.0274 -19.2903 -3.97187
1 -15.4191 -15.2542 -3.76027
3 -11.774 -15.3816 -3.83669
2 -7.81147 -15.6026 -3.88689
2 -3.77315 -15.8128 -3.91443
2 0.0437553 -15.632 -3.86547
2 4.03574 -15.5941 -3.95324
2 7.79173 -15.6114 -4.07539
2 11.9466 -15.4531 -3.89795
3 15.4557 -15.1042 -3.66344
2 -19.2285 -11.8239 -3.80217
2 -15.5008 -11.7451 -3.8864
3 -11.7087 -11.5976 -3.93723
2 -7.8715 -11.5806 -4.11944
2 -3.85489 -11.8054 -3.75451
1 -0.0827379 -11.7753 -3.98293
2 3.80913 -11.8337 -3.93872
3 7.59147 -11.5674 -3.78171
1 11.4324 -11.5818 -3.72106
2 15.4737 -11.5708 -3.74156
3 19.0624 -11.1733 -3.79341
3 -19.1 -7.78721 -3.87463
2 -15.6081 -7.79785 -3.94815
2 -11.7418 -7.7577 -3.98671
2 -7.66955 -7.6924 -4.03997
2 -4.00101 -7.81555 -3.95192
1 -0.125803 -7.7848 -4.11495
1 3.72637 -7.81987 -3.95401
1 7.64333 -7.65803 -3.98758
1 11.6055 -7.64548 -3.94841
2 15.3068 -7.41866 -3.85428
1 19.1216 -7.7045 -3.77951
2 -22.9239 -4.15744 -3.99588
1 -19.2048 -3.9893 -3.85234
2 -15.3002 -4.00645 -4.06658
1 -11.6087 -3.86138 -4.06237
2 -7.73542 -3.79532 -4.09268
1 -3.68307 -3.88629 -4.0574
2 -0.0830195 -3.88668 -3.89387
2 3.72151 -3.87956 -4.03769
1 7.7963 -3.82271 -3.81826
2 11.4935 -3.7528 -3.928
2 15.3824 -3.90407 -3.66745
2 19.0908 -3.85072 -3.65099
1 22.9428 -4.09383 -3.9042
3 -22.7111 -0.146169 -3.70917
3 -19.0852 0.0835864 -3.94501
1 -15.2594 -0.0526786 -3.91016
2 -11.6163 0.108225 -3.96996
1 -7.77295 0.0190362 -3.9254
2 -3.79434 -0.0120891 -3.91127
2 -0.105755 -0.0695899 -4.06863
2 3.82323 0.0332415 -4.00682
2 7.54749 0.0457482 -3.99372
1 11.3518 0.355905 -4.00287
1 15.3537 0.030419 -3.842
2 19.1371 -0.0983359 -3.86463
2 22.8361 0.155267 -3.71986
3 -22.6876 3.92996 -3.72714
1 -19.1256 3.93433 -3.9478
2 -15.4157 4.0619 -3.81834
2 -11.6264 3.84881 -3.81319
2 -7.68926 3.88313 -3.87497
2 -3.75858 3.91077 -4.07507
2 -0.101294 3.91464 -4.09004
1 3.39768 3.98443 -4.14482
2 7.33916 3.97952 -3.9159
1 11.44 3.8836 -3.87522
2 15.3769 3.76826 -4.20331
2 19.2243 3.80457 -3.89778
3 22.6649 3.92329 -3.85004
1 -19.1046 7.71088 -3.77756
2 -15.3312 7.73434 -3.89438
2 -11.319 8.09595 -4.05667
2 -7.6024 7.88062 -4.0218
2 -3.72667 7.88653 -3.9878
2 -0.0914028 7.79543 -4.32936
2 3.69974 7.74086 -4.0087
3 7.57133 7.62356 -4.02536
3 11.4862 7.59689 -4.0444
2 15.4219 7.83395 -3.92288
2 19.1199 7.62199 -3.91365
1 -19.2689 11.8487 -4.1686
3 -15.3143 11.6836 -3.8434
1 -11.4209 11.7889 -4.04523
1 -7.72659 11.7984 -3.98245
3 -3.75792 11.8103 -4.01158
1 -0.0374203 11.7922 -4.14393
2 3.83488 11.5972 -3.97574
2 7.46294 11.5363 -4.0554
2 11.4946 11.4661 -3.97324
2 15.2476 11.5351 -4.0103
3 19.019 11.7306 -4.01365
2 -15.4997 15.4928 -4.0003
2 -11.5072 15.4832 -4.05822
2 -7.73163 15.5371 -4.01969
2 -3.83128 15.7059 -3.78362
2 -0.0978236 15.4552 -3.70237
1 3.96094 15.5361 -4.03698
2 7.66287 15.402 -3.904
2 11.2948 15.3307 -3.79542
1 15.5051 15.5028 -3.96611
3 -11.4966 19.2032 -3.70963
2 -7.71372 19.2419 -3.68697
3 -3.83832 19.3237 -3.78198
2 0.113393 19.2012 -3.76463
2 3.85051 19.1995 -3.91489
1 7.73097 19.2341 -3.86209
3 11.3909 18.9258 -3.81963
3 -3.86067 22.8218 -3.78604
2 0.125766 22.966 -3.67847
3 3.76304 22.7924 -3.75104
3 -7.77149 -22.8324 -0.146716
3 -3.67747 -22.9473 0.193013
3 0.0830014 -23.0724 -0.0522338
2 3.81914 -22.9331 0.142125
3 7.75447 -22.8631 0.0611246
3 -11.6107 -19.238 -0.0637992
3 -7.81355 -19.3444 0.206464
1 -3.76991 -19.2194 0.0467886
3 0.0609851 -19.2297 0.0550026
3 3.78161 -19.3603 0.101974
2 7.69943 -19.034 0.153021
2 11.7786 -19.2623 0.25055
2 -15.3081 -15.5028 -0.039425
2 -11.5103 -15.4164 0.0642764
2 -7.8642 -15.5219 -0.0322348
1 -3.86199 -15.5261 -0.0772854
1 -0.151521 -15.6086 -0.0173845
1 3.82621 -15.5388 -0.0183664
1 7.69487 -15.2371 0.182767
1 11.7117 -15.3422 0.101546
3 15.3741 -15.1548 0.328949
2 -19.2667 -11.691 0.133843
2 -15.3084 -11.6782 0.0786585
1 -11.406 -11.7101 0.0270184
2 -7.9225 -11.7113 -0.144301
1 -3.94884 -11.6838 0.03022
1 -0.0447126 -11.6335 -0.0595895
1 3.9006 -11.7079 -0.145175
2 7.68169 -11.5454 0.133653
3 11.5215 -11.4692 -0.0981905
1 15.4328 -11.4101 0.0931756
3 19.0503 -11.5126 0.179168
3 -22.5737 -7.77974 0.0669809
2 -19.1028 -7.70292 0.155283
2 -15.2899 -7.60378 0.120395
2 -11.5551 -7.69207 -0.173997
2 -7.88599 -7.69304 -0.116488
3 -4.07227 -7.78536 -0.23752
1 -0.0548843 -7.96012 0.0896052
2 3.87802 -7.80315 -0.0793879
2 7.64764 -7.688 0.0408078
1 11.2888 -7.66214 0.0203496
2 15.2969 -7.69008 0.174543
3 19.0962 -7.50369 0.148
3 22.8631 -7.38731 0.0674786
2 -22.8147 -3.97112 0.119261
2 -19.009 -3.80522 0.181617
2 -15.2197 -3.88702 -0.0459967
2 -11.4823 -3.8719 -0.129351
1 -7.67071 -4.05871 -0.0836443
2 -3.96436 -3.9691 -0.208809
3 0.0394213 -3.92239 -0.100031
1 3.79648 -3.89551 -0.230999
2 7.61347 -3.85887 -0.0247734
2 11.4978 -3.74017 -0.139931
2 15.2603 -3.68536 -0.0935285
1 19.1519 -3.89845 0.0851648
3 22.9279 -3.87146 0.111509
1 -22.5207 0.0370215 0.205203
2 -18.9815 -0.0216581 0.128097
2 -15.2751 -0.0862972 0.0963264
1 -11.4893 0.0307368 0.0396706
2 -7.52992 -0.0426044 -0.0357626
1 -3.73751 -0.0316695 -0.0844864
2 -0.0930851 0.0678488 -0.17802
1 3.81707 -0.030536 -0.162379
2 7.69034 0.137811 -0.0453359
3 11.3751 0.118836 -0.0362659
2 15.1814 -0.0423519 0.0582922
1 19.2739 0.0473694 0.0112873
2 22.7389 0.000597709 0.0650469
3 -22.4612 3.80844 0.216471
2 -19.0282 3.82565 -0.185751
1 -15.1087 3.91556 0.241709
1 -11.4676 3.93233 0.0314309
3 -7.47249 4.01775 -0.151737
2 -3.86823 3.86923 -0.0883812
2 -0.079265 3.95158 -0.126645
2 3.71767 4.05539 -0.0634506
2 7.6025 4.03927 0.141632
2 11.5656 3.92796 -0.1298
2 15.4043 3.78528 0.0297032
2 19.0209 3.70035 0.156983
3 22.8217 3.63064 0.092037
3 -22.464 7.70547 -0.234868
2 -19.0661 7.67733 0.0613123
2 -15.2426 7.66539 -0.0358059
2 -11.2883 7.71914 -0.228136
2 -7.53199 7.97209 -0.143935
2 -3.87674 7.91233 -0.249676
1 -0.104538 7.88493 -0.0902183
1 3.76413 7.84024 0.0252532
2 7.63035 7.80191 0.0645368
2 11.4165 7.66642 -0.139195
2 15.4564 7.66945 -0.143336
1 19.2046 7.5557 0.0871657
3 22.4922 7.47108 -0.0484089
3 -18.9954 11.4907 0.0215186
1 -15.3178 11.5474 -0.108406
1 -11.4659 11.6933 -0.109033
2 -7.59307 11.7693 -0.10481
1 -3.68336 11.6556 -0.0859767
2 0.186209 11.6302 -0.0694442
3 3.76105 11.4483 0.135091
2 7.77789 11.4795 0.0911929
1 11.5385 11.5335 -0.0835072
2 15.3109 11.6048 -0.127867
3 19.0795 11.7188 -0.231695
2 -15.2735 15.1218 0.0172187
1 -11.5715 15.5546 0.0647152
1 -7.66275 15.5271 -0.0456988
2 -3.88346 15.4171 0.177061
1 -0.0131197 15.4582 0.00375645
2 3.63207 15.5792 0.0477002
1 7.51459 15.2688 -0.0100182
3 11.5045 15.4567 -0.005883
3 15.2619 15.2919 0.0618802
3 -11.5356 19.1004 -0.0360929
2 -7.50059 19.2882 0.17718
1 -3.96655 19.3 0.0606975
1 -0.0872376 19.2209 0.124687
2 3.84809 19.1917 0.103165
2 7.56876 19.1829 -0.0610263
2 11.6396 19.1813 -0.0984502
3 -7.6046 22.7189 0.117226
3 -3.94793 22.8472 0.00111744
3 -0.0870357 22.9391 0.160399
3 3.7656 22.6958 0.179772
3 7.59631 22.6659 0.0758701
1 -3.93798 -22.252 4.73041
3 0.239045 -22.9082 3.79254
3 4.05153 -22.8585 3.87582
2 -11.7539 -19.0079 3.7798
1 -7.86205 -19.3066 3.8304
1 -3.91316 -19.4319 4.06523
1 0.00127618 -19.417 3.91931
2 3.91031 -19.2366 3.84349
3 7.64063 -19.1901 3.97324
3 11.5475 -19.0776 3.72347
1 -15.6225 -15.458 3.85838
2 -11.6991 -15.3317 3.8642
1 -7.61238 -15.4144 3.77372
2 -3.99859 -15.3769 3.85697
2 0.0364573 -15.3414 3.93017
1 3.76985 -15.6161 3.94647
2 7.60316 -15.2531 3.96691
2 11.4777 -15.0686 4.02975
3 15.388 -15.1348 4.07437
3 -18.9326 -11.6353 3.89898
1 -15.4299 -11.5947 3.88798
2 -11.6316 -11.5454 3.77242
1 -7.73429 -11.4943 3.90747
2 -3.94819 -11.7823 3.81002
1 -0.0366868 -11.5074 3.75545
3 3.66831 -11.5294 3.70309
2 7.52333 -11.6524 3.91017
2 11.5464 -11.451 3.97852
3 15.2524 -11.338 3.92517
3 19.003 -11.3959 3.95861
3 -19.1191 -7.48319 4.08796
2 -15.3037 -7.7783 3.87825
1 -11.5066 -7.51328 3.82865
1 -7.74442 -7.71662 3.86785
2 -3.90247 -7.63487 3.93466
2 -0.160691 -7.92438 3.83989
2 3.86966 -7.8442 3.84611
3 7.60276 -7.67222 3.97541
2 11.5906 -7.48283 3.84452
2 15.2692 -7.58359 3.92134
2 19.1397 -7.8748 4.07019
3 -22.7314 -3.77682 4.11475
3 -18.9578 -3.93913 4.07167
1 -15.1894 -3.8764 3.96629
1 -11.4221 -3.90093 3.79675
2 -7.71039 -3.94923 3.85917
3 -3.75778 -3.70702 3.85951
1 -0.0318695 -3.81898 3.82001
1 3.92953 -3.82406 3.6684
2 7.54882 -3.71119 3.93805
2 11.4792 -3.93214 3.85712
2 15.291 -3.88 4.07184
3 19.2574 -3.90385 4.08811
3 23.0304 -4.10464 3.78561
3 -22.4643 0.0260708 3.84457
3 -18.9168 0.0421104 3.92977
2 -15.2289 -0.0632531 4.0806
1 -11.3799 0.0136586 3.69012
1 -7.59142 0.0286039 3.94439
2 -3.86991 -0.143185 3.64912
1 -0.0341996 0.0213821 3.95022
1 3.87363 0.180456 3.9141
2 7.55912 0.222999 3.87311
2 11.3117 -0.0891402 3.97157
1 15.0163 -0.0999774 4.02743
1 19.1509 -0.0873953 3.8959
3 22.7438 -0.243492 4.01736
2 -22.7495 3.85039 4.12032
2 -18.9683 3.98745 3.89746
1 -15.3068 3.98919 3.87347
2 -11.3721 3.86754 3.98281
1 -7.51096 3.91861 3.82403
1 -3.84797 3.89503 3.82767
2 0.117145 3.75257 3.94328
2 3.7026 3.91975 4.17093
2 7.39532 3.92462 3.91571
2 11.5661 3.82621 3.87739
2 15.3191 3.74552 3.77976
1 19.0598 3.56439 3.85769
1 22.5906 3.6029 4.02021
2 -19.0766 7.63953 3.91089
2 -15.2743 7.80619 3.91548
2 -11.3435 7.99964 3.88714
2 -7.50008 7.75955 3.9571
1 -3.81991 7.82631 3.90468
1 0.0194292 7.6777 3.86734
2 3.80792 7.67516 4.00189
1 7.48837 7.82977 4.05529
1 11.5926 7.74016 3.71047
2 15.2483 7.66107 4.00796
2 18.9313 7.56466 3.85048
1 -18.9937 11.5094 4.17307
2 -15.0996 11.6235 3.81232
1 -11.3655 11.5615 3.86175
1 -7.55386 11.6802 3.87411
2 -3.70649 11.8037 3.86859
1 -0.00513946 11.5717 3.98995
2 3.73922 11.6535 4.09513
2 7.81749 11.6471 4.06088
2 11.6541 11.515 3.92048
2 15.3211 11.5459 3.99364
3 19.066 11.4182 3.92765
2 -15.3778 15.2207 3.96899
1 -11.5952 15.3842 3.93989
2 -7.68466 15.5065 4.08935
2 -3.78776 15.526 3.97539
2 0.0749264 15.5444 3.95993
1 3.8993 15.4261 3.90715
1 7.79484 15.3248 3.91034
3 11.5583 15.2708 4.00441
2 15.3496 15.2549 4.18038
3 -11.613 19.1613 3.96624
1 -7.61661 19.3103 4.03312
1 -3.97586 19.2734 3.92419
2 -0.019882 19.1059 3.92955
1 3.96635 19.2331 3.86524
2 7.75086 19.2498 3.77046
2 11.749 19.024 3.91897
1 -3.76109 22.8687 3.89482
2 -0.0181696 22.9177 4.01042
3 3.97547 22.8845 3.85141
3 0.168004 -22.8486 7.626
3 -11.6036 -18.8301 7.70686
3 -7.88187 -19.165 7.70149
3 -4.01984 -19.3031 7.67953
2 0.1733 -19.4427 7.81567
2 3.70587 -19.1919 7.70792
2 7.5981 -19.1429 7.68721
2 11.3534 -18.8969 7.62934
2 -15.2809 -15.275 7.69852
2 -11.5404 -15.4276 7.52496
2 -7.54138 -15.3337 7.64109
1 -3.97062 -15.5051 7.75136
2 -0.00495176 -15.4609 7.76205
2 3.7823 -15.2434 7.68539
1 7.52639 -15.4283 7.70686
1 11.3922 -15.3743 7.76232
2 15.1376 -15.2447 8.14639
3 -19.0616 -11.4651 7.83806
1 -15.2337 -11.5346 7.61438
1 -11.4923 -11.5714 7.67851
1 -7.88117 -11.5981 7.60088
3 -3.85797 -11.4937 7.71533
2 0.0279965 -11.3437 7.6491
2 3.8468 -11.6205 7.8253
2 7.65891 -11.5987 7.7191
2 11.5946 -11.3862 7.92914
1 15.1964 -11.3591 8.093
1 18.795 -11.2825 8.05299
1 -19.2919 -7.71615 7.70946
2 -15.2207 -7.6957 7.65743
1 -11.5134 -7.91231 7.78563
3 -7.66092 -7.69852 7.80074
2 -3.9655 -7.50378 7.83344
1 -0.146984 -7.63797 7.76506
3 3.84825 -7.66442 7.75825
2 7.54469 -7.70943 7.77175
2 11.5174 -7.68169 7.83488
3 15.184 -7.64127 8.03362
3 18.9086 -7.55142 7.95089
3 -19.0069 -3.70973 7.98682
2 -15.2645 -3.89385 7.90456
1 -11.4023 -3.90396 7.83232
2 -7.59809 -3.78405 7.83062
2 -3.86273 -3.74876 7.83964
2 -0.202167 -3.72729 7.6281
2 3.78394 -3.61415 7.531
3 7.46477 -3.77843 7.86794
2 11.3274 -3.86839 7.77035
3 15.3376 -3.905 7.78591
1 19.1972 -3.67138 7.94364
3 -22.3728 -0.0450921 7.63415
1 -18.7687 -0.0471879 7.82817
1 -15.1503 0.0509513 7.83553
1 -11.3381 0.0542752 7.86433
2 -7.42704 -0.0551337 7.908
2 -3.91606 0.0556688 7.7699
1 0.0475909 -0.156207 7.75981
1 3.84946 -0.137342 7.73253
3 7.55707 0.0124398 7.96247
2 11.54 -0.0959992 7.825
1 15.194 0.111397 7.68232
2 19.077 -0.0899792 7.7332
3 22.5176 -0.0235014 7.78367
2 -18.9194 3.89187 7.8796
2 -15.2023 3.96508 7.70016
1 -11.4644 3.84253 7.97937
2 -7.55298 4.05178 7.95386
2 -3.73613 3.79096 7.71893
2 0.0465864 3.58996 7.91564
2 3.77757 3.7925 7.87664
1 7.76425 3.81847 7.88881
1 11.4329 3.82613 7.77137
1 15.2207 3.82245 7.71147
3 18.7631 3.75325 7.75991
2 -18.9316 7.5848 7.81706
1 -15.1106 7.74341 7.65289
2 -11.3511 7.74945 7.81607
1 -7.73206 7.67874 7.72523
2 -3.87563 7.63541 7.74685
2 0.0168548 7.58516 7.83984
1 3.886 7.59471 7.90143
2 7.6955 7.63532 7.88081
1 11.4989 7.83416 7.73883
2 15.2382 7.63932 7.77368
1 18.9663 7.61413 7.64465
3 -18.7978 11.3125 7.99692
2 -15.2067 11.5039 7.84291
1 -11.3391 11.7327 7.8559
3 -7.59188 11.4355 7.88745
1 -3.67728 11.549 7.95778
2 -0.0181568 11.5485 7.88923
2 3.90889 11.4292 7.82155
1 7.69335 11.4008 7.94407
2 11.6267 11.4695 7.89667
2 15.2944 11.5347 7.87017
3 18.9263 11.5083 8.00994
3 -15.1029 15.3762 7.81752
2 -11.4942 15.4519 7.842
2 -7.47618 15.211 7.81129
3 -3.5783 15.4512 7.94834
1 -0.103621 15.4935 7.89296
2 3.86312 15.3659 7.8791
2 7.59885 15.4197 7.85048
3 11.535 15.1042 7.83416
2 15.5825 15.3431 8.10746
2 -11.6036 19.1138 7.85612
1 -7.54317 19.1733 7.97744
2 -3.71872 19.456 8.01894
3 -0.00224481 19.2799 7.96171
1 3.86958 19.2116 7.69936
3 7.68707 19.168 7.68284
3 11.2172 18.9264 7.73813
3 -0.195506 22.9016 7.57014
3 -7.7976 -19.0045 11.3877
3 -3.65778 -19.1061 11.5387
1 0.144225 -19.2523 11.318
1 4.09501 -19.2597 11.7083
2 7.78461 -18.9839 11.5263
3 -11.4788 -15.2676 11.596
1 -7.66361 -15.2363 11.6227
3 -3.73066 -15.3355 11.4938
3 0.0527396 -15.2259 11.6937
3 3.80109 -15.3226 11.5653
3 7.55432 -15.0724 11.5531
3 11.4852 -15.242 11.7821
3 -15.3154 -11.5131 11.4967
3 -11.4961 -11.4741 11.6642
1 -7.69113 -11.5644 11.5739
1 -3.86106 -11.4334 11.6424
1 -0.037111 -11.7127 11.5176
1 3.90663 -11.55 11.6531
1 7.69222 -11.6264 11.513
2 11.4717 -11.5818 11.9261
2 15.2777 -11.666 11.9729
3 -18.9816 -7.60713 11.4431
3 -15.3527 -7.70947 11.6108
2 -11.4213 -7.76949 11.8298
2 -7.68803 -7.53952 11.6508
1 -3.83276 -7.645 11.8216
1 0.00260757 -7.67541 11.5585
1 3.68874 -7.74236 11.8093
2 7.58556 -7.77918 11.671
3 11.4885 -7.71159 11.7538
3 15.1514 -7.74339 11.7907
3 18.9216 -7.94566 11.7399
1 -18.9476 -4.14199 11.7542
2 -15.2943 -3.75031 11.7106
2 -11.4436 -3.80276 11.7002
2 -7.58227 -3.81372 11.8678
1 -3.9021 -3.7094 11.7731
3 0.0512628 -3.82453 11.7246
1 3.98672 -3.94879 11.8124
2 7.60921 -3.61589 12.0061
3 11.3573 -3.95135 11.9371
2 15.3422 -3.79491 11.5734
2 18.994 -3.7762 11.6555
3 -18.9978 -0.225683 11.7065
1 -15.0864 -0.0782574 11.5324
1 -11.5037 0.0550092 11.6649
2 -7.67585 0.0241647 11.8095
2 -3.92303 -0.0964738 11.8503
2 -0.163409 0.0698326 11.7565
2 3.68623 -0.00770702 11.8481
2 7.59787 -0.178178 11.839
2 11.5003 -0.147518 11.6119
2 15.1257 0.163063 11.6599
3 18.8386 0.0391544 11.6642
3 -18.8692 4.09624 11.6618
2 -15.3844 3.53147 11.7952
1 -11.4192 4.01172 11.8148
2 -7.65042 3.8499 11.7913
3 -3.82144 3.89804 11.77
2 -0.200606 3.80813 11.7309
2 3.86148 3.84115 11.8523
1 7.55127 3.88802 11.7011
2 11.4147 3.78094 11.643
2 15.2307 4.00908 11.6872
2 19.0672 4.1061 11.4934
3 -18.6538 7.95948 11.4861
3 -15.0913 7.74865 11.4196
2 -11.3159 7.78012 11.6096
3 -7.4858 7.72105 11.7681
2 -3.78247 7.61431 11.9887
2 0.0546889 7.5828 11.9169
1 3.6913 7.57583 11.7781
1 7.53811 7.55039 11.7472
2 11.5672 7.75545 11.687
1 15.4551 7.85608 11.5512
3 18.9332 7.55104 11.3298
3 -15.1487 11.5298 11.537
2 -11.3228 11.4725 11.5301
2 -7.54237 11.4883 11.7739
2 -3.76495 11.6074 11.7874
1 -0.110899 11.3431 11.8308
1 3.81132 11.5051 11.5701
1 7.60904 11.4645 11.7006
2 11.684 11.4452 11.8201
3 15.3861 11.4318 11.63
2 -11.9238 15.584 11.9612
1 -7.72754 15.4654 11.8991
1 -3.65049 15.3998 11.8123
2 0.0962621 15.5475 11.8035
2 3.84131 15.318 11.8269
3 7.706 15.1262 11.704
2 11.6782 15.4037 11.8178
2 -7.70569 19.1742 11.8018
1 -3.94772 19.204 11.8913
1 0.125014 19.2626 11.8671
1 4.0724 19.2893 11.811
3 7.66433 18.9808 11.5023
3 -7.45047 -15.2874 15.3817
3 -3.75735 -15.4186 15.4944
3 0.055033 -15.3578 15.2927
3 3.95429 -15.3218 15.3587
3 7.67098 -15.3477 15.2309
2 -11.6466 -11.8354 15.583
2 -7.78474 -11.4576 15.4114
2 -3.88747 -11.6543 15.3453
2 -0.0877933 -11.7 15.5754
1 3.7366 -11.605 15.5896
3 7.75444 -11.5571 15.4717
3 11.4796 -11.5645 15.5769
3 -15.0491 -7.7705 15.4304
1 -11.3934 -7.66621 15.497
1 -7.63133 -7.81557 15.4627
3 -3.93825 -7.75857 15.5293
2 -0.227089 -7.93504 15.5039
2 3.7852 -7.93677 15.6258
1 7.59365 -7.73321 15.5767
2 11.4198 -7.7946 15.657
3 15.2043 -7.6753 15.4843
3 -15.1616 -3.97602 15.31
2 -11.5876 -3.78816 15.519
2 -7.56161 -3.93582 15.6004
2 -3.81184 -3.98057 15.5714
1 0.096298 -3.9905 15.803
3 3.48933 -4.06293 15.7685
3 7.62153 -3.92829 15.87
2 11.6414 -3.89887 15.6668
1 15.4041 -3.88926 15.6295
2 -15.2687 0.0327661 15.6978
3 -11.5053 0.0672435 15.4714
2 -7.48045 0.0122783 15.834
2 -3.62291 -0.067396 15.8093
2 -0.0295889 0.128425 15.7057
3 3.60597 -0.129566 15.8245
2 7.57834 -0.151995 15.735
1 11.5633 -0.057222 15.7119
2 15.0837 -0.00600482 15.5488
1 -15.2383 4.10504 15.2933
2 -11.677 4.10319 15.4793
2 -7.76939 4.07535 15.4734
3 -3.87197 3.84045 15.6978
1 -0.183306 3.79014 15.9931
2 3.93492 3.98425 15.6811
1 7.56886 3.84224 15.8323
2 11.1849 3.73562 15.5414
3 15.3938 3.90213 15.3358
1 -15.2153 8.19018 15.2331
3 -11.4412 7.81451 15.4635
2 -7.64157 7.69422 15.2161
2 -3.8091 7.84296 15.8269
2 0.0089944 7.6219 15.9291
2 3.96451 7.71646 15.6279
3 7.70419 7.73834 15.7112
2 11.294 7.865 15.6315
2 15.6474 8.21843 15.5229
3 -11.4864 11.7105 15.431
2 -7.60702 11.5788 15.4231
2 -3.68435 11.7846 15.7469
3 0.0530554 11.4425 15.7515
3 3.85754 11.524 15.4572
3 7.61667 11.4843 15.3665
3 11.4529 11.4628 15.5077
2 -7.92811 15.6755 15.7603
1 -3.6277 15.7666 15.8183
2 0.00546657 15.4085 15.6451
2 3.7947 15.4501 15.5954
3 7.68116 15.1857 15.388
2 -7.48009 -11.6045 19.1694
3 -3.82633 -11.7998 19.0756
3 -0.0879309 -11.6462 19.1328
3 3.98991 -11.7904 19.1547
2 7.62674 -11.6374 19.3261
2 -11.3868 -7.96403 19.3186
2 -7.58796 -7.81463 19.1441
2 -3.71848 -8.11876 19.1181
1 -0.101329 -8.19685 19.4104
1 3.82417 -7.98732 19.5857
3 7.67846 -7.91233 19.3252
3 11.5647 -7.87182 19.4355
3 -11.6444 -3.8292 19.2649
2 -7.74827 -3.74696 19.4841
3 -3.80805 -4.16172 19.4936
2 -0.113232 -4.22951 19.6192
2 4.05334 -4.22434 19.7288
2 7.81956 -3.94342 19.6825
2 11.7641 -4.06101 19.3412
2 -11.7084 -0.0196647 19.2631
2 -7.91697 0.161734 19.3486
1 -3.94919 -0.237017 19.7333
3 -0.0588951 -0.223066 19.745
1 3.8691 -0.233679 19.531
2 7.61109 -0.0881022 19.6519
1 11.6973 -0.0656964 19.4871
2 -11.5229 3.89306 18.9937
1 -7.99785 3.91228 19.3035
2 -4.01697 4.05469 19.471
1 -0.103767 3.66869 19.6336
2 3.76571 3.89634 19.7581
2 7.76971 3.76627 19.6004
1 11.6673 3.83921 19.1781
3 -11.5922 7.84722 19.1111
3 -7.87034 7.8291 19.2875
2 -3.91937 7.72186 19.6302
2 0.0806026 8.02653 19.6892
2 3.86999 7.96335 19.5099
3 7.8746 7.66052 19.4044
3 11.5043 7.61063 19.11
2 -7.93167 11.5111 18.9634
1 -3.91439 11.8122 19.2673
1 -0.137341 11.7438 19.4892
3 3.94167 11.5641 19.2703
1 7.7703 11.3953 19.0437
3 -0.168601 -8.18199 22.914
2 -3.98754 -4.78123 23.7163
3 -0.109672 -4.42251 23.2229
1 3.9266 -4.06343 23.0275
3 -7.68388 0.117294 22.6252
1 -4.11798 0.22285 22.9812
3 -0.490094 0.335171 23.9592
1 3.62039 0.17452 23.0835
3 7.65941 -0.0644954 22.9578
3 -4.08269 3.90611 23.1936
3 -0.290044 3.97201 23.3971
3 3.70722 4.03998 23.2905
1 0.0376956 7.88975 23.1939
2 -6.39167 -6.75813 -22.9223
3 -1.87813 -6.10244 -22.9548
3 1.86784 -5.78917 -23.0026
3 5.87521 -5.89888 -22.975
3 -5.66836 -2.0873 -22.9773
2 -1.99867 -2.20736 -23.0242
3 2.07028 -1.99553 -23.0558
2 5.9844 -2.22127 -23.0044
3 -5.89687 1.71416 -23.0038
3 -2.03483 1.6665 -23.3202
3 1.73768 1.87285 -23.0875
3 5.67766 1.88611 -22.9968
2 -5.79155 5.75415 -22.9416
3 -1.86343 5.89713 -23.0802
2 1.98907 5.74279 -23.276
3 5.6074 5.75032 -23
3 -5.72044 -13.5294 -19.1236
3 -1.84992 -13.5701 -19.228
3 1.99015 -13.5372 -19.3192
3 5.9556 -13.2853 -19.1088
2 -9.8471 -10.1235 -19.0906
1 -5.84095 -10.3265 -19.3488
2 -1.72172 -9.75584 -19.313
2 1.81907 -9.95292 -19.3557
1 5.7656 -10.048 -19.4846
1 9.8966 -9.92465 -19.062
3 -13.505 -6.3187 -19.2686
2 -9.93612 -5.84108 -19.3138
1 -5.8126 -6.06523 -19.5678
2 -1.68677 -5.98225 -19.2477
3 1.86125 -6.07034 -19.4583
1 5.75267 -5.85414 -19.3397
2 9.76625 -5.79545 -19.2966
2 13.5382 -5.82942 -18.9406
2 -13.2762 -1.90884 -19.2626