LAMMPS DATA FOR MEAM SIMULATION

   4321   atoms
      3   atom types

  -33.55   33.55   xlo xhi
  -33.55   33.55   ylo yhi
  -33.55   33.55   zlo zhi

 Atoms

     1   2     0.00000    -7.84889   -23.54666
     2   2    -3.92444    -3.92444   -23.54666
     3   2     0.00000    -3.92444   -23.54666
     4   2     3.92444    -3.92444   -23.54666
     5   1    -7.84889     0.00000   -23.54666
     6   1    -3.92444     0.00000   -23.54666
     7   2     0.00000     0.00000   -23.54666
     8   1     3.92444     0.00000   -23.54666
     9   2     7.84889     0.00000   -23.54666
    10   2    -3.92444     3.92444   -23.54666
    11   3     0.00000     3.92444   -23.54666
    12   2     3.92444     3.92444   -23.54666
    13   3     0.00000     7.84889   -23.54666
    14   3    -7.84889   -11.77333   -19.62221
    15   2    -3.92444   -11.77333   -19.62221
    16   2     0.00000   -11.77333   -19.62221
    17   1     3.92444   -11.77333   -19.62221
    18   1     7.84889   -11.77333   -19.62221
    19   3   -11.77333    -7.84889   -19.62221
    20   1    -7.84889    -7.84889   -19.62221
    21   2    -3.92444    -7.84889   -19.62221
    22   3     0.00000    -7.84889   -19.62221
    23   3     3.92444    -7.84889   -19.62221
    24   3     7.84889    -7.84889   -19.62221
    25   2    11.77333    -7.84889   -19.62221
    26   2   -11.77333    -3.92444   -19.62221
    27   2    -7.84889    -3.92444   -19.62221
    28   2    -3.92444    -3.92444   -19.62221
    29   3     0.00000    -3.92444   -19.62221
    30   1     3.92444    -3.92444   -19.62221
    31   2     7.84889    -3.92444   -19.62221
    32   1    11.77333    -3.92444   -19.62221
    33   3   -11.77333     0.00000   -19.62221
    34   1    -7.84889     0.00000   -19.62221
    35   2    -3.92444     0.00000   -19.62221
    36   2     0.00000     0.00000   -19.62221
    37   1     3.92444     0.00000   -19.62221
    38   1     7.84889     0.00000   -19.62221
    39   2    11.77333     0.00000   -19.62221
    40   2   -11.77333     3.92444   -19.62221
    41   3    -7.84889     3.92444   -19.62221
    42   2    -3.92444     3.92444   -19.62221
    43   1     0.00000     3.92444   -19.62221
    44   1     3.92444     3.92444   -19.62221
    45   2     7.84889     3.92444   -19.62221
    46   1    11.77333     3.92444   -19.62221
    47   1   -11.77333     7.84889   -19.62221
    48   2    -7.84889     7.84889   -19.62221
    49   3    -3.92444     7.84889   -19.62221
    50   2     0.00000     7.84889   -19.62221
    51   1     3.92444     7.84889   -19.62221
    52   2     7.84889     7.84889   -19.62221
    53   2    11.77333     7.84889   -19.62221
    54   1    -7.84889    11.77333   -19.62221
    55   2    -3.92444    11.77333   -19.62221
    56   1     0.00000    11.77333   -19.62221
    57   2     3.92444    11.77333   -19.62221
    58   2     7.84889    11.77333   -19.62221
    59   2    -7.84889   -15.69777   -15.69777
    60   2    -3.92444   -15.69777   -15.69777
    61   1     0.00000   -15.69777   -15.69777
    62   2     3.92444   -15.69777   -15.69777
    63   2     7.84889   -15.69777   -15.69777
    64   3   -11.77333   -11.77333   -15.69777
    65   3    -7.84889   -11.77333   -15.69777
    66   2    -3.92444   -11.77333   -15.69777
    67   2     0.00000   -11.77333   -15.69777
    68   2     3.92444   -11.77333   -15.69777
    69   2     7.84889   -11.77333   -15.69777
    70   1    11.77333   -11.77333   -15.69777
    71   3   -15.69777    -7.84889   -15.69777
    72   1   -11.77333    -7.84889   -15.69777
    73   2    -7.84889    -7.84889   -15.69777
    74   1    -3.92444    -7.84889   -15.69777
    75   2     0.00000    -7.84889   -15.69777
    76   2     3.92444    -7.84889   -15.69777
    77   3     7.84889    -7.84889   -15.69777
    78   1    11.77333    -7.84889   -15.69777
    79   2    15.69777    -7.84889   -15.69777
    80   2   -15.69777    -3.92444   -15.69777
    81   2   -11.77333    -3.92444   -15.69777
    82   1    -7.84889    -3.92444   -15.69777
    83   2    -3.92444    -3.92444   -15.69777
    84   1     0.00000    -3.92444   -15.69777
    85   2     3.92444    -3.92444   -15.69777
    86   1     7.84889    -3.92444   -15.69777
    87   2    11.77333    -3.92444   -15.69777
    88   1    15.69777    -3.92444   -15.69777
    89   1   -15.69777     0.00000   -15.69777
    90   3   -11.77333     0.00000   -15.69777
    91   2    -7.84889     0.00000   -15.69777
    92   2    -3.92444     0.00000   -15.69777
    93   2     0.00000     0.00000   -15.69777
    94   3     3.92444     0.00000   -15.69777
    95   1     7.84889     0.00000   -15.69777
    96   1    11.77333     0.00000   -15.69777
    97   1    15.69777     0.00000   -15.69777
    98   2   -15.69777     3.92444   -15.69777
    99   3   -11.77333     3.92444   -15.69777
   100   2    -7.84889     3.92444   -15.69777
   101   1    -3.92444     3.92444   -15.69777
   102   2     0.00000     3.92444   -15.69777
   103   2     3.92444     3.92444   -15.69777
   104   3     7.84889     3.92444   -15.69777
   105   3    11.77333     3.92444   -15.69777
   106   1    15.69777     3.92444   -15.69777
   107   2   -15.69777     7.84889   -15.69777
   108   2   -11.77333     7.84889   -15.69777
   109   1    -7.84889     7.84889   -15.69777
   110   1    -3.92444     7.84889   -15.69777
   111   3     0.00000     7.84889   -15.69777
   112   2     3.92444     7.84889   -15.69777
   113   3     7.84889     7.84889   -15.69777
   114   2    11.77333     7.84889   -15.69777
   115   1    15.69777     7.84889   -15.69777
   116   2   -11.77333    11.77333   -15.69777
   117   1    -7.84889    11.77333   -15.69777
   118   2    -3.92444    11.77333   -15.69777
   119   3     0.00000    11.77333   -15.69777
   120   1     3.92444    11.77333   -15.69777
   121   2     7.84889    11.77333   -15.69777
   122   1    11.77333    11.77333   -15.69777
   123   2    -7.84889    15.69777   -15.69777
   124   3    -3.92444    15.69777   -15.69777
   125   2     0.00000    15.69777   -15.69777
   126   3     3.92444    15.69777   -15.69777
   127   2     7.84889    15.69777   -15.69777
   128   2    -7.84889   -19.62221   -11.77333
   129   2    -3.92444   -19.62221   -11.77333
   130   2     0.00000   -19.62221   -11.77333
   131   2     3.92444   -19.62221   -11.77333
   132   2     7.84889   -19.62221   -11.77333
   133   1   -11.77333   -15.69777   -11.77333
   134   2    -7.84889   -15.69777   -11.77333
   135   1    -3.92444   -15.69777   -11.77333
   136   2     0.00000   -15.69777   -11.77333
   137   2     3.92444   -15.69777   -11.77333
   138   1     7.84889   -15.69777   -11.77333
   139   2    11.77333   -15.69777   -11.77333
   140   1   -15.69777   -11.77333   -11.77333
   141   1   -11.77333   -11.77333   -11.77333
   142   1    -7.84889   -11.77333   -11.77333
   143   2    -3.92444   -11.77333   -11.77333
   144   3     0.00000   -11.77333   -11.77333
   145   3     3.92444   -11.77333   -11.77333
   146   2     7.84889   -11.77333   -11.77333
   147   1    11.77333   -11.77333   -11.77333
   148   3    15.69777   -11.77333   -11.77333
   149   1   -19.62221    -7.84889   -11.77333
   150   1   -15.69777    -7.84889   -11.77333
   151   2   -11.77333    -7.84889   -11.77333
   152   2    -7.84889    -7.84889   -11.77333
   153   2    -3.92444    -7.84889   -11.77333
   154   2     0.00000    -7.84889   -11.77333
   155   1     3.92444    -7.84889   -11.77333
   156   3     7.84889    -7.84889   -11.77333
   157   1    11.77333    -7.84889   -11.77333
   158   3    15.69777    -7.84889   -11.77333
   159   1    19.62221    -7.84889   -11.77333
   160   2   -19.62221    -3.92444   -11.77333
   161   3   -15.69777    -3.92444   -11.77333
   162   3   -11.77333    -3.92444   -11.77333
   163   1    -7.84889    -3.92444   -11.77333
   164   2    -3.92444    -3.92444   -11.77333
   165   2     0.00000    -3.92444   -11.77333
   166   3     3.92444    -3.92444   -11.77333
   167   3     7.84889    -3.92444   -11.77333
   168   3    11.77333    -3.92444   -11.77333
   169   2    15.69777    -3.92444   -11.77333
   170   2    19.62221    -3.92444   -11.77333
   171   2   -19.62221     0.00000   -11.77333
   172   1   -15.69777     0.00000   -11.77333
   173   3   -11.77333     0.00000   -11.77333
   174   1    -7.84889     0.00000   -11.77333
   175   3    -3.92444     0.00000   -11.77333
   176   1     0.00000     0.00000   -11.77333
   177   2     3.92444     0.00000   -11.77333
   178   1     7.84889     0.00000   -11.77333
   179   1    11.77333     0.00000   -11.77333
   180   1    15.69777     0.00000   -11.77333
   181   1    19.62221     0.00000   -11.77333
   182   2   -19.62221     3.92444   -11.77333
   183   3   -15.69777     3.92444   -11.77333
   184   1   -11.77333     3.92444   -11.77333
   185   2    -7.84889     3.92444   -11.77333
   186   2    -3.92444     3.92444   -11.77333
   187   1     0.00000     3.92444   -11.77333
   188   2     3.92444     3.92444   -11.77333
   189   2     7.84889     3.92444   -11.77333
   190   1    11.77333     3.92444   -11.77333
   191   2    15.69777     3.92444   -11.77333
   192   3    19.62221     3.92444   -11.77333
   193   1   -19.62221     7.84889   -11.77333
   194   3   -15.69777     7.84889   -11.77333
   195   2   -11.77333     7.84889   -11.77333
   196   2    -7.84889     7.84889   -11.77333
   197   3    -3.92444     7.84889   -11.77333
   198   1     0.00000     7.84889   -11.77333
   199   1     3.92444     7.84889   -11.77333
   200   2     7.84889     7.84889   -11.77333
   201   2    11.77333     7.84889   -11.77333
   202   1    15.69777     7.84889   -11.77333
   203   1    19.62221     7.84889   -11.77333
   204   1   -15.69777    11.77333   -11.77333
   205   2   -11.77333    11.77333   -11.77333
   206   2    -7.84889    11.77333   -11.77333
   207   3    -3.92444    11.77333   -11.77333
   208   2     0.00000    11.77333   -11.77333
   209   1     3.92444    11.77333   -11.77333
   210   2     7.84889    11.77333   -11.77333
   211   1    11.77333    11.77333   -11.77333
   212   1    15.69777    11.77333   -11.77333
   213   3   -11.77333    15.69777   -11.77333
   214   1    -7.84889    15.69777   -11.77333
   215   1    -3.92444    15.69777   -11.77333
   216   1     0.00000    15.69777   -11.77333
   217   1     3.92444    15.69777   -11.77333
   218   3     7.84889    15.69777   -11.77333
   219   2    11.77333    15.69777   -11.77333
   220   2    -7.84889    19.62221   -11.77333
   221   1    -3.92444    19.62221   -11.77333
   222   1     0.00000    19.62221   -11.77333
   223   2     3.92444    19.62221   -11.77333
   224   3     7.84889    19.62221   -11.77333
   225   1     0.00000   -23.54666    -7.84889
   226   2   -11.77333   -19.62221    -7.84889
   227   2    -7.84889   -19.62221    -7.84889
   228   1    -3.92444   -19.62221    -7.84889
   229   2     0.00000   -19.62221    -7.84889
   230   2     3.92444   -19.62221    -7.84889
   231   2     7.84889   -19.62221    -7.84889
   232   3    11.77333   -19.62221    -7.84889
   233   2   -15.69777   -15.69777    -7.84889
   234   3   -11.77333   -15.69777    -7.84889
   235   3    -7.84889   -15.69777    -7.84889
   236   1    -3.92444   -15.69777    -7.84889
   237   3     0.00000   -15.69777    -7.84889
   238   3     3.92444   -15.69777    -7.84889
   239   1     7.84889   -15.69777    -7.84889
   240   3    11.77333   -15.69777    -7.84889
   241   1    15.69777   -15.69777    -7.84889
   242   2   -19.62221   -11.77333    -7.84889
   243   2   -15.69777   -11.77333    -7.84889
   244   3   -11.77333   -11.77333    -7.84889
   245   3    -7.84889   -11.77333    -7.84889
   246   3    -3.92444   -11.77333    -7.84889
   247   2     0.00000   -11.77333    -7.84889
   248   1     3.92444   -11.77333    -7.84889
   249   2     7.84889   -11.77333    -7.84889
   250   1    11.77333   -11.77333    -7.84889
   251   3    15.69777   -11.77333    -7.84889
   252   3    19.62221   -11.77333    -7.84889
   253   2   -19.62221    -7.84889    -7.84889
   254   1   -15.69777    -7.84889    -7.84889
   255   3   -11.77333    -7.84889    -7.84889
   256   2    -7.84889    -7.84889    -7.84889
   257   1    -3.92444    -7.84889    -7.84889
   258   3     0.00000    -7.84889    -7.84889
   259   1     3.92444    -7.84889    -7.84889
   260   1     7.84889    -7.84889    -7.84889
   261   3    11.77333    -7.84889    -7.84889
   262   2    15.69777    -7.84889    -7.84889
   263   2    19.62221    -7.84889    -7.84889
   264   1   -19.62221    -3.92444    -7.84889
   265   2   -15.69777    -3.92444    -7.84889
   266   2   -11.77333    -3.92444    -7.84889
   267   2    -7.84889    -3.92444    -7.84889
   268   1    -3.92444    -3.92444    -7.84889
   269   2     0.00000    -3.92444    -7.84889
   270   3     3.92444    -3.92444    -7.84889
   271   1     7.84889    -3.92444    -7.84889
   272   3    11.77333    -3.92444    -7.84889
   273   1    15.69777    -3.92444    -7.84889
   274   3    19.62221    -3.92444    -7.84889
   275   1   -23.54666     0.00000    -7.84889
   276   1   -19.62221     0.00000    -7.84889
   277   1   -15.69777     0.00000    -7.84889
   278   2   -11.77333     0.00000    -7.84889
   279   3    -7.84889     0.00000    -7.84889
   280   1    -3.92444     0.00000    -7.84889
   281   3     0.00000     0.00000    -7.84889
   282   2     3.92444     0.00000    -7.84889
   283   1     7.84889     0.00000    -7.84889
   284   1    11.77333     0.00000    -7.84889
   285   1    15.69777     0.00000    -7.84889
   286   1    19.62221     0.00000    -7.84889
   287   1    23.54666     0.00000    -7.84889
   288   2   -19.62221     3.92444    -7.84889
   289   1   -15.69777     3.92444    -7.84889
   290   3   -11.77333     3.92444    -7.84889
   291   3    -7.84889     3.92444    -7.84889
   292   2    -3.92444     3.92444    -7.84889
   293   2     0.00000     3.92444    -7.84889
   294   3     3.92444     3.92444    -7.84889
   295   3     7.84889     3.92444    -7.84889
   296   3    11.77333     3.92444    -7.84889
   297   2    15.69777     3.92444    -7.84889
   298   2    19.62221     3.92444    -7.84889
   299   3   -19.62221     7.84889    -7.84889
   300   1   -15.69777     7.84889    -7.84889
   301   2   -11.77333     7.84889    -7.84889
   302   3    -7.84889     7.84889    -7.84889
   303   1    -3.92444     7.84889    -7.84889
   304   3     0.00000     7.84889    -7.84889
   305   1     3.92444     7.84889    -7.84889
   306   3     7.84889     7.84889    -7.84889
   307   3    11.77333     7.84889    -7.84889
   308   2    15.69777     7.84889    -7.84889
   309   3    19.62221     7.84889    -7.84889
   310   1   -19.62221    11.77333    -7.84889
   311   2   -15.69777    11.77333    -7.84889
   312   2   -11.77333    11.77333    -7.84889
   313   3    -7.84889    11.77333    -7.84889
   314   2    -3.92444    11.77333    -7.84889
   315   3     0.00000    11.77333    -7.84889
   316   2     3.92444    11.77333    -7.84889
   317   2     7.84889    11.77333    -7.84889
   318   2    11.77333    11.77333    -7.84889
   319   2    15.69777    11.77333    -7.84889
   320   3    19.62221    11.77333    -7.84889
   321   2   -15.69777    15.69777    -7.84889
   322   1   -11.77333    15.69777    -7.84889
   323   2    -7.84889    15.69777    -7.84889
   324   2    -3.92444    15.69777    -7.84889
   325   2     0.00000    15.69777    -7.84889
   326   2     3.92444    15.69777    -7.84889
   327   1     7.84889    15.69777    -7.84889
   328   2    11.77333    15.69777    -7.84889
   329   3    15.69777    15.69777    -7.84889
   330   2   -11.77333    19.62221    -7.84889
   331   2    -7.84889    19.62221    -7.84889
   332   2    -3.92444    19.62221    -7.84889
   333   1     0.00000    19.62221    -7.84889
   334   3     3.92444    19.62221    -7.84889
   335   2     7.84889    19.62221    -7.84889
   336   2    11.77333    19.62221    -7.84889
   337   2     0.00000    23.54666    -7.84889
   338   1    -3.92444   -23.54666    -3.92444
   339   3     0.00000   -23.54666    -3.92444
   340   2     3.92444   -23.54666    -3.92444
   341   3   -11.77333   -19.62221    -3.92444
   342   2    -7.84889   -19.62221    -3.92444
   343   2    -3.92444   -19.62221    -3.92444
   344   2     0.00000   -19.62221    -3.92444
   345   2     3.92444   -19.62221    -3.92444
   346   1     7.84889   -19.62221    -3.92444
   347   2    11.77333   -19.62221    -3.92444
   348   1   -15.69777   -15.69777    -3.92444
   349   1   -11.77333   -15.69777    -3.92444
   350   2    -7.84889   -15.69777    -3.92444
   351   1    -3.92444   -15.69777    -3.92444
   352   2     0.00000   -15.69777    -3.92444
   353   3     3.92444   -15.69777    -3.92444
   354   2     7.84889   -15.69777    -3.92444
   355   2    11.77333   -15.69777    -3.92444
   356   2    15.69777   -15.69777    -3.92444
   357   2   -19.62221   -11.77333    -3.92444
   358   1   -15.69777   -11.77333    -3.92444
   359   1   -11.77333   -11.77333    -3.92444
   360   2    -7.84889   -11.77333    -3.92444
   361   3    -3.92444   -11.77333    -3.92444
   362   3     0.00000   -11.77333    -3.92444
   363   1     3.92444   -11.77333    -3.92444
   364   2     7.84889   -11.77333    -3.92444
   365   1    11.77333   -11.77333    -3.92444
   366   2    15.69777   -11.77333    -3.92444
   367   1    19.62221   -11.77333    -3.92444
   368   3   -19.62221    -7.84889    -3.92444
   369   1   -15.69777    -7.84889    -3.92444
   370   1   -11.77333    -7.84889    -3.92444
   371   3    -7.84889    -7.84889    -3.92444
   372   3    -3.92444    -7.84889    -3.92444
   373   2     0.00000    -7.84889    -3.92444
   374   2     3.92444    -7.84889    -3.92444
   375   1     7.84889    -7.84889    -3.92444
   376   2    11.77333    -7.84889    -3.92444
   377   2    15.69777    -7.84889    -3.92444
   378   1    19.62221    -7.84889    -3.92444
   379   3   -23.54666    -3.92444    -3.92444
   380   1   -19.62221    -3.92444    -3.92444
   381   2   -15.69777    -3.92444    -3.92444
   382   2   -11.77333    -3.92444    -3.92444
   383   3    -7.84889    -3.92444    -3.92444
   384   1    -3.92444    -3.92444    -3.92444
   385   3     0.00000    -3.92444    -3.92444
   386   1     3.92444    -3.92444    -3.92444
   387   2     7.84889    -3.92444    -3.92444
   388   1    11.77333    -3.92444    -3.92444
   389   2    15.69777    -3.92444    -3.92444
   390   2    19.62221    -3.92444    -3.92444
   391   2    23.54666    -3.92444    -3.92444
   392   2   -23.54666     0.00000    -3.92444
   393   3   -19.62221     0.00000    -3.92444
   394   2   -15.69777     0.00000    -3.92444
   395   3   -11.77333     0.00000    -3.92444
   396   3    -7.84889     0.00000    -3.92444
   397   1    -3.92444     0.00000    -3.92444
   398   3     0.00000     0.00000    -3.92444
   399   3     3.92444     0.00000    -3.92444
   400   3     7.84889     0.00000    -3.92444
   401   2    11.77333     0.00000    -3.92444
   402   2    15.69777     0.00000    -3.92444
   403   2    19.62221     0.00000    -3.92444
   404   2    23.54666     0.00000    -3.92444
   405   2   -23.54666     3.92444    -3.92444
   406   3   -19.62221     3.92444    -3.92444
   407   3   -15.69777     3.92444    -3.92444
   408   2   -11.77333     3.92444    -3.92444
   409   3    -7.84889     3.92444    -3.92444
   410   2    -3.92444     3.92444    -3.92444
   411   2     0.00000     3.92444    -3.92444
   412   3     3.92444     3.92444    -3.92444
   413   2     7.84889     3.92444    -3.92444
   414   1    11.77333     3.92444    -3.92444
   415   2    15.69777     3.92444    -3.92444
   416   3    19.62221     3.92444    -3.92444
   417   2    23.54666     3.92444    -3.92444
   418   3   -19.62221     7.84889    -3.92444
   419   2   -15.69777     7.84889    -3.92444
   420   2   -11.77333     7.84889    -3.92444
   421   1    -7.84889     7.84889    -3.92444
   422   1    -3.92444     7.84889    -3.92444
   423   1     0.00000     7.84889    -3.92444
   424   3     3.92444     7.84889    -3.92444
   425   3     7.84889     7.84889    -3.92444
   426   1    11.77333     7.84889    -3.92444
   427   1    15.69777     7.84889    -3.92444
   428   2    19.62221     7.84889    -3.92444
   429   2   -19.62221    11.77333    -3.92444
   430   2   -15.69777    11.77333    -3.92444
   431   1   -11.77333    11.77333    -3.92444
   432   2    -7.84889    11.77333    -3.92444
   433   2    -3.92444    11.77333    -3.92444
   434   2     0.00000    11.77333    -3.92444
   435   1     3.92444    11.77333    -3.92444
   436   2     7.84889    11.77333    -3.92444
   437   3    11.77333    11.77333    -3.92444
   438   3    15.69777    11.77333    -3.92444
   439   1    19.62221    11.77333    -3.92444
   440   2   -15.69777    15.69777    -3.92444
   441   2   -11.77333    15.69777    -3.92444
   442   3    -7.84889    15.69777    -3.92444
   443   2    -3.92444    15.69777    -3.92444
   444   2     0.00000    15.69777    -3.92444
   445   2     3.92444    15.69777    -3.92444
   446   1     7.84889    15.69777    -3.92444
   447   2    11.77333    15.69777    -3.92444
   448   2    15.69777    15.69777    -3.92444
   449   2   -11.77333    19.62221    -3.92444
   450   1    -7.84889    19.62221    -3.92444
   451   2    -3.92444    19.62221    -3.92444
   452   2     0.00000    19.62221    -3.92444
   453   1     3.92444    19.62221    -3.92444
   454   2     7.84889    19.62221    -3.92444
   455   2    11.77333    19.62221    -3.92444
   456   2    -3.92444    23.54666    -3.92444
   457   2     0.00000    23.54666    -3.92444
   458   1     3.92444    23.54666    -3.92444
   459   1    -7.84889   -23.54666     0.00000
   460   1    -3.92444   -23.54666     0.00000
   461   1     0.00000   -23.54666     0.00000
   462   1     3.92444   -23.54666     0.00000
   463   3     7.84889   -23.54666     0.00000
   464   2   -11.77333   -19.62221     0.00000
   465   3    -7.84889   -19.62221     0.00000
   466   1    -3.92444   -19.62221     0.00000
   467   2     0.00000   -19.62221     0.00000
   468   1     3.92444   -19.62221     0.00000
   469   2     7.84889   -19.62221     0.00000
   470   1    11.77333   -19.62221     0.00000
   471   3   -15.69777   -15.69777     0.00000
   472   3   -11.77333   -15.69777     0.00000
   473   2    -7.84889   -15.69777     0.00000
   474   3    -3.92444   -15.69777     0.00000
   475   2     0.00000   -15.69777     0.00000
   476   3     3.92444   -15.69777     0.00000
   477   2     7.84889   -15.69777     0.00000
   478   3    11.77333   -15.69777     0.00000
   479   1    15.69777   -15.69777     0.00000
   480   2   -19.62221   -11.77333     0.00000
   481   2   -15.69777   -11.77333     0.00000
   482   3   -11.77333   -11.77333     0.00000
   483   2    -7.84889   -11.77333     0.00000
   484   3    -3.92444   -11.77333     0.00000
   485   3     0.00000   -11.77333     0.00000
   486   2     3.92444   -11.77333     0.00000
   487   2     7.84889   -11.77333     0.00000
   488   1    11.77333   -11.77333     0.00000
   489   2    15.69777   -11.77333     0.00000
   490   1    19.62221   -11.77333     0.00000
   491   1   -23.54666    -7.84889     0.00000
   492   2   -19.62221    -7.84889     0.00000
   493   2   -15.69777    -7.84889     0.00000
   494   1   -11.77333    -7.84889     0.00000
   495   3    -7.84889    -7.84889     0.00000
   496   1    -3.92444    -7.84889     0.00000
   497   2     0.00000    -7.84889     0.00000
   498   1     3.92444    -7.84889     0.00000
   499   1     7.84889    -7.84889     0.00000
   500   2    11.77333    -7.84889     0.00000
   501   2    15.69777    -7.84889     0.00000
   502   2    19.62221    -7.84889     0.00000
   503   1    23.54666    -7.84889     0.00000
   504   1   -23.54666    -3.92444     0.00000
   505   3   -19.62221    -3.92444     0.00000
   506   2   -15.69777    -3.92444     0.00000
   507   3   -11.77333    -3.92444     0.00000
   508   1    -7.84889    -3.92444     0.00000
   509   3    -3.92444    -3.92444     0.00000
   510   1     0.00000    -3.92444     0.00000
   511   3     3.92444    -3.92444     0.00000
   512   3     7.84889    -3.92444     0.00000
   513   3    11.77333    -3.92444     0.00000
   514   1    15.69777    -3.92444     0.00000
   515   1    19.62221    -3.92444     0.00000
   516   2    23.54666    -3.92444     0.00000
   517   1   -23.54666     0.00000     0.00000
   518   3   -19.62221     0.00000     0.00000
   519   1   -15.69777     0.00000     0.00000
   520   1   -11.77333     0.00000     0.00000
   521   3    -7.84889     0.00000     0.00000
   522   3    -3.92444     0.00000     0.00000
   523   3     0.00000     0.00000     0.00000
   524   3     3.92444     0.00000     0.00000
   525   2     7.84889     0.00000     0.00000
   526   3    11.77333     0.00000     0.00000
   527   1    15.69777     0.00000     0.00000
   528   1    19.62221     0.00000     0.00000
   529   3    23.54666     0.00000     0.00000
   530   3   -23.54666     3.92444     0.00000
   531   2   -19.62221     3.92444     0.00000
   532   3   -15.69777     3.92444     0.00000
   533   1   -11.77333     3.92444     0.00000
   534   2    -7.84889     3.92444     0.00000
   535   3    -3.92444     3.92444     0.00000
   536   3     0.00000     3.92444     0.00000
   537   2     3.92444     3.92444     0.00000
   538   1     7.84889     3.92444     0.00000
   539   3    11.77333     3.92444     0.00000
   540   2    15.69777     3.92444     0.00000
   541   3    19.62221     3.92444     0.00000
   542   2    23.54666     3.92444     0.00000
   543   2   -23.54666     7.84889     0.00000
   544   2   -19.62221     7.84889     0.00000
   545   3   -15.69777     7.84889     0.00000
   546   3   -11.77333     7.84889     0.00000
   547   3    -7.84889     7.84889     0.00000
   548   3    -3.92444     7.84889     0.00000
   549   2     0.00000     7.84889     0.00000
   550   3     3.92444     7.84889     0.00000
   551   1     7.84889     7.84889     0.00000
   552   2    11.77333     7.84889     0.00000
   553   3    15.69777     7.84889     0.00000
   554   1    19.62221     7.84889     0.00000
   555   1    23.54666     7.84889     0.00000
   556   1   -19.62221    11.77333     0.00000
   557   3   -15.69777    11.77333     0.00000
   558   2   -11.77333    11.77333     0.00000
   559   2    -7.84889    11.77333     0.00000
   560   2    -3.92444    11.77333     0.00000
   561   2     0.00000    11.77333     0.00000
   562   3     3.92444    11.77333     0.00000
   563   2     7.84889    11.77333     0.00000
   564   3    11.77333    11.77333     0.00000
   565   2    15.69777    11.77333     0.00000
   566   2    19.62221    11.77333     0.00000
   567   3   -15.69777    15.69777     0.00000
   568   1   -11.77333    15.69777     0.00000
   569   2    -7.84889    15.69777     0.00000
   570   1    -3.92444    15.69777     0.00000
   571   1     0.00000    15.69777     0.00000
   572   2     3.92444    15.69777     0.00000
   573   1     7.84889    15.69777     0.00000
   574   2    11.77333    15.69777     0.00000
   575   3    15.69777    15.69777     0.00000
   576   2   -11.77333    19.62221     0.00000
   577   2    -7.84889    19.62221     0.00000
   578   2    -3.92444    19.62221     0.00000
   579   3     0.00000    19.62221     0.00000
   580   2     3.92444    19.62221     0.00000
   581   2     7.84889    19.62221     0.00000
   582   1    11.77333    19.62221     0.00000
   583   2    -7.84889    23.54666     0.00000
   584   1    -3.92444    23.54666     0.00000
   585   3     0.00000    23.54666     0.00000
   586   2     3.92444    23.54666     0.00000
   587   1     7.84889    23.54666     0.00000
   588   3    -3.92444   -23.54666     3.92444
   589   2     0.00000   -23.54666     3.92444
   590   1     3.92444   -23.54666     3.92444
   591   2   -11.77333   -19.62221     3.92444
   592   1    -7.84889   -19.62221     3.92444
   593   1    -3.92444   -19.62221     3.92444
   594   1     0.00000   -19.62221     3.92444
   595   3     3.92444   -19.62221     3.92444
   596   1     7.84889   -19.62221     3.92444
   597   2    11.77333   -19.62221     3.92444
   598   1   -15.69777   -15.69777     3.92444
   599   1   -11.77333   -15.69777     3.92444
   600   1    -7.84889   -15.69777     3.92444
   601   2    -3.92444   -15.69777     3.92444
   602   3     0.00000   -15.69777     3.92444
   603   1     3.92444   -15.69777     3.92444
   604   3     7.84889   -15.69777     3.92444
   605   1    11.77333   -15.69777     3.92444
   606   2    15.69777   -15.69777     3.92444
   607   2   -19.62221   -11.77333     3.92444
   608   3   -15.69777   -11.77333     3.92444
   609   1   -11.77333   -11.77333     3.92444
   610   2    -7.84889   -11.77333     3.92444
   611   2    -3.92444   -11.77333     3.92444
   612   3     0.00000   -11.77333     3.92444
   613   3     3.92444   -11.77333     3.92444
   614   2     7.84889   -11.77333     3.92444
   615   2    11.77333   -11.77333     3.92444
   616   3    15.69777   -11.77333     3.92444
   617   2    19.62221   -11.77333     3.92444
   618   3   -19.62221    -7.84889     3.92444
   619   1   -15.69777    -7.84889     3.92444
   620   2   -11.77333    -7.84889     3.92444
   621   3    -7.84889    -7.84889     3.92444
   622   2    -3.92444    -7.84889     3.92444
   623   3     0.00000    -7.84889     3.92444
   624   2     3.92444    -7.84889     3.92444
   625   1     7.84889    -7.84889     3.92444
   626   3    11.77333    -7.84889     3.92444
   627   2    15.69777    -7.84889     3.92444
   628   1    19.62221    -7.84889     3.92444
   629   1   -23.54666    -3.92444     3.92444
   630   1   -19.62221    -3.92444     3.92444
   631   1   -15.69777    -3.92444     3.92444
   632   2   -11.77333    -3.92444     3.92444
   633   3    -7.84889    -3.92444     3.92444
   634   3    -3.92444    -3.92444     3.92444