LAMMPS DATA FOR MEAM SIMULATION

   4091   atoms
      3   atom types

  -33.55   33.55   xlo xhi
  -33.55   33.55   ylo yhi
  -33.55   33.55   zlo zhi

 Atoms

     1   2     0.00000    -7.84889   -23.54666
     2   1    -3.92444    -3.92444   -23.54666
     3   2     0.00000    -3.92444   -23.54666
     4   2     3.92444    -3.92444   -23.54666
     5   1    -3.92444     0.00000   -23.54666
     6   2     0.00000     0.00000   -23.54666
     7   2     3.92444     0.00000   -23.54666
     8   2    -3.92444     3.92444   -23.54666
     9   1     3.92444     3.92444   -23.54666
    10   2    -7.84889   -11.77333   -19.62221
    11   2    -3.92444   -11.77333   -19.62221
    12   2     0.00000   -11.77333   -19.62221
    13   1     3.92444   -11.77333   -19.62221
    14   1     7.84889   -11.77333   -19.62221
    15   1   -11.77333    -7.84889   -19.62221
    16   2    -7.84889    -7.84889   -19.62221
    17   1    -3.92444    -7.84889   -19.62221
    18   1     0.00000    -7.84889   -19.62221
    19   2     3.92444    -7.84889   -19.62221
    20   2     7.84889    -7.84889   -19.62221
    21   1    11.77333    -7.84889   -19.62221
    22   1   -11.77333    -3.92444   -19.62221
    23   3    -7.84889    -3.92444   -19.62221
    24   3    -3.92444    -3.92444   -19.62221
    25   2     0.00000    -3.92444   -19.62221
    26   1     3.92444    -3.92444   -19.62221
    27   3     7.84889    -3.92444   -19.62221
    28   1    11.77333    -3.92444   -19.62221
    29   2   -11.77333     0.00000   -19.62221
    30   3    -7.84889     0.00000   -19.62221
    31   2    -3.92444     0.00000   -19.62221
    32   2     0.00000     0.00000   -19.62221
    33   2     3.92444     0.00000   -19.62221
    34   1     7.84889     0.00000   -19.62221
    35   2    11.77333     0.00000   -19.62221
    36   2   -11.77333     3.92444   -19.62221
    37   1    -7.84889     3.92444   -19.62221
    38   2    -3.92444     3.92444   -19.62221
    39   2     0.00000     3.92444   -19.62221
    40   2     3.92444     3.92444   -19.62221
    41   2     7.84889     3.92444   -19.62221
    42   1    11.77333     3.92444   -19.62221
    43   2   -11.77333     7.84889   -19.62221
    44   3    -7.84889     7.84889   -19.62221
    45   2    -3.92444     7.84889   -19.62221
    46   2     0.00000     7.84889   -19.62221
    47   2     3.92444     7.84889   -19.62221
    48   2     7.84889     7.84889   -19.62221
    49   2    11.77333     7.84889   -19.62221
    50   2    -7.84889    11.77333   -19.62221
    51   2    -3.92444    11.77333   -19.62221
    52   1     0.00000    11.77333   -19.62221
    53   2     3.92444    11.77333   -19.62221
    54   2    -7.84889   -15.69777   -15.69777
    55   2    -3.92444   -15.69777   -15.69777
    56   1     0.00000   -15.69777   -15.69777
    57   1     3.92444   -15.69777   -15.69777
    58   2     7.84889   -15.69777   -15.69777
    59   3   -11.77333   -11.77333   -15.69777
    60   1    -7.84889   -11.77333   -15.69777
    61   3    -3.92444   -11.77333   -15.69777
    62   3     0.00000   -11.77333   -15.69777
    63   2     3.92444   -11.77333   -15.69777
    64   2     7.84889   -11.77333   -15.69777
    65   2    11.77333   -11.77333   -15.69777
    66   1   -15.69777    -7.84889   -15.69777
    67   3   -11.77333    -7.84889   -15.69777
    68   2    -7.84889    -7.84889   -15.69777
    69   1    -3.92444    -7.84889   -15.69777
    70   3     0.00000    -7.84889   -15.69777
    71   2     3.92444    -7.84889   -15.69777
    72   1     7.84889    -7.84889   -15.69777
    73   2    11.77333    -7.84889   -15.69777
    74   2    15.69777    -7.84889   -15.69777
    75   2   -15.69777    -3.92444   -15.69777
    76   3   -11.77333    -3.92444   -15.69777
    77   1    -7.84889    -3.92444   -15.69777
    78   2    -3.92444    -3.92444   -15.69777
    79   3     0.00000    -3.92444   -15.69777
    80   1     3.92444    -3.92444   -15.69777
    81   3     7.84889    -3.92444   -15.69777
    82   2    11.77333    -3.92444   -15.69777
    83   2    15.69777    -3.92444   -15.69777
    84   2   -15.69777     0.00000   -15.69777
    85   1   -11.77333     0.00000   -15.69777
    86   3    -7.84889     0.00000   -15.69777
    87   3    -3.92444     0.00000   -15.69777
    88   1     0.00000     0.00000   -15.69777
    89   2     3.92444     0.00000   -15.69777
    90   2     7.84889     0.00000   -15.69777
    91   3    11.77333     0.00000   -15.69777
    92   2    15.69777     0.00000   -15.69777
    93   1   -15.69777     3.92444   -15.69777
    94   3   -11.77333     3.92444   -15.69777
    95   3    -7.84889     3.92444   -15.69777
    96   2    -3.92444     3.92444   -15.69777
    97   2     0.00000     3.92444   -15.69777
    98   3     3.92444     3.92444   -15.69777
    99   2     7.84889     3.92444   -15.69777
   100   3    11.77333     3.92444   -15.69777
   101   2    15.69777     3.92444   -15.69777
   102   1   -15.69777     7.84889   -15.69777
   103   1   -11.77333     7.84889   -15.69777
   104   3    -7.84889     7.84889   -15.69777
   105   1    -3.92444     7.84889   -15.69777
   106   1     0.00000     7.84889   -15.69777
   107   3     3.92444     7.84889   -15.69777
   108   1     7.84889     7.84889   -15.69777
   109   1    11.77333     7.84889   -15.69777
   110   2    15.69777     7.84889   -15.69777
   111   1   -11.77333    11.77333   -15.69777
   112   2    -7.84889    11.77333   -15.69777
   113   1    -3.92444    11.77333   -15.69777
   114   2     0.00000    11.77333   -15.69777
   115   1     3.92444    11.77333   -15.69777
   116   1     7.84889    11.77333   -15.69777
   117   1    11.77333    11.77333   -15.69777
   118   1    -7.84889    15.69777   -15.69777
   119   2    -3.92444    15.69777   -15.69777
   120   2     0.00000    15.69777   -15.69777
   121   2     3.92444    15.69777   -15.69777
   122   1     7.84889    15.69777   -15.69777
   123   1    -7.84889   -19.62221   -11.77333
   124   1    -3.92444   -19.62221   -11.77333
   125   2     0.00000   -19.62221   -11.77333
   126   3     3.92444   -19.62221   -11.77333
   127   3   -11.77333   -15.69777   -11.77333
   128   2    -7.84889   -15.69777   -11.77333
   129   2    -3.92444   -15.69777   -11.77333
   130   3     0.00000   -15.69777   -11.77333
   131   2     3.92444   -15.69777   -11.77333
   132   2     7.84889   -15.69777   -11.77333
   133   1    11.77333   -15.69777   -11.77333
   134   2   -15.69777   -11.77333   -11.77333
   135   2   -11.77333   -11.77333   -11.77333
   136   2    -7.84889   -11.77333   -11.77333
   137   3    -3.92444   -11.77333   -11.77333
   138   3     0.00000   -11.77333   -11.77333
   139   3     3.92444   -11.77333   -11.77333
   140   2     7.84889   -11.77333   -11.77333
   141   1    11.77333   -11.77333   -11.77333
   142   1    15.69777   -11.77333   -11.77333
   143   2   -19.62221    -7.84889   -11.77333
   144   2   -15.69777    -7.84889   -11.77333
   145   3   -11.77333    -7.84889   -11.77333
   146   3    -7.84889    -7.84889   -11.77333
   147   2    -3.92444    -7.84889   -11.77333
   148   3     0.00000    -7.84889   -11.77333
   149   1     3.92444    -7.84889   -11.77333
   150   3     7.84889    -7.84889   -11.77333
   151   2    11.77333    -7.84889   -11.77333
   152   1    15.69777    -7.84889   -11.77333
   153   1    19.62221    -7.84889   -11.77333
   154   2   -19.62221    -3.92444   -11.77333
   155   3   -15.69777    -3.92444   -11.77333
   156   2   -11.77333    -3.92444   -11.77333
   157   2    -7.84889    -3.92444   -11.77333
   158   2    -3.92444    -3.92444   -11.77333
   159   2     0.00000    -3.92444   -11.77333
   160   3     3.92444    -3.92444   -11.77333
   161   3     7.84889    -3.92444   -11.77333
   162   1    11.77333    -3.92444   -11.77333
   163   2    15.69777    -3.92444   -11.77333
   164   1    19.62221    -3.92444   -11.77333
   165   1   -19.62221     0.00000   -11.77333
   166   1   -15.69777     0.00000   -11.77333
   167   3   -11.77333     0.00000   -11.77333
   168   3    -7.84889     0.00000   -11.77333
   169   3    -3.92444     0.00000   -11.77333
   170   2     0.00000     0.00000   -11.77333
   171   3     3.92444     0.00000   -11.77333
   172   2     7.84889     0.00000   -11.77333
   173   3    11.77333     0.00000   -11.77333
   174   3    15.69777     0.00000   -11.77333
   175   1    19.62221     0.00000   -11.77333
   176   2   -19.62221     3.92444   -11.77333
   177   3   -15.69777     3.92444   -11.77333
   178   2   -11.77333     3.92444   -11.77333
   179   2    -7.84889     3.92444   -11.77333
   180   3    -3.92444     3.92444   -11.77333
   181   3     0.00000     3.92444   -11.77333
   182   3     3.92444     3.92444   -11.77333
   183   2     7.84889     3.92444   -11.77333
   184   2    11.77333     3.92444   -11.77333
   185   1    15.69777     3.92444   -11.77333
   186   2    19.62221     3.92444   -11.77333
   187   1   -15.69777     7.84889   -11.77333
   188   1   -11.77333     7.84889   -11.77333
   189   3    -7.84889     7.84889   -11.77333
   190   2    -3.92444     7.84889   -11.77333
   191   3     0.00000     7.84889   -11.77333
   192   2     3.92444     7.84889   -11.77333
   193   1     7.84889     7.84889   -11.77333
   194   2    11.77333     7.84889   -11.77333
   195   2    15.69777     7.84889   -11.77333
   196   2    19.62221     7.84889   -11.77333
   197   2   -15.69777    11.77333   -11.77333
   198   2   -11.77333    11.77333   -11.77333
   199   1    -7.84889    11.77333   -11.77333
   200   1    -3.92444    11.77333   -11.77333
   201   2     0.00000    11.77333   -11.77333
   202   3     3.92444    11.77333   -11.77333
   203   3     7.84889    11.77333   -11.77333
   204   2    11.77333    11.77333   -11.77333
   205   2    15.69777    11.77333   -11.77333
   206   2   -11.77333    15.69777   -11.77333
   207   2    -7.84889    15.69777   -11.77333
   208   3    -3.92444    15.69777   -11.77333
   209   1     0.00000    15.69777   -11.77333
   210   1     3.92444    15.69777   -11.77333
   211   1     7.84889    15.69777   -11.77333
   212   2    11.77333    15.69777   -11.77333
   213   2    -3.92444    19.62221   -11.77333
   214   2     0.00000    19.62221   -11.77333
   215   1     3.92444    19.62221   -11.77333
   216   2     7.84889    19.62221   -11.77333
   217   2   -11.77333   -19.62221    -7.84889
   218   2    -7.84889   -19.62221    -7.84889
   219   3    -3.92444   -19.62221    -7.84889
   220   2     0.00000   -19.62221    -7.84889
   221   2     3.92444   -19.62221    -7.84889
   222   1     7.84889   -19.62221    -7.84889
   223   2    11.77333   -19.62221    -7.84889
   224   1   -15.69777   -15.69777    -7.84889
   225   3   -11.77333   -15.69777    -7.84889
   226   2    -7.84889   -15.69777    -7.84889
   227   3    -3.92444   -15.69777    -7.84889
   228   1     0.00000   -15.69777    -7.84889
   229   1     3.92444   -15.69777    -7.84889
   230   1     7.84889   -15.69777    -7.84889
   231   2    11.77333   -15.69777    -7.84889
   232   2    15.69777   -15.69777    -7.84889
   233   1   -19.62221   -11.77333    -7.84889
   234   3   -15.69777   -11.77333    -7.84889
   235   3   -11.77333   -11.77333    -7.84889
   236   3    -7.84889   -11.77333    -7.84889
   237   3    -3.92444   -11.77333    -7.84889
   238   2     0.00000   -11.77333    -7.84889
   239   2     3.92444   -11.77333    -7.84889
   240   2     7.84889   -11.77333    -7.84889
   241   3    11.77333   -11.77333    -7.84889
   242   2    15.69777   -11.77333    -7.84889
   243   1   -19.62221    -7.84889    -7.84889
   244   2   -15.69777    -7.84889    -7.84889
   245   2   -11.77333    -7.84889    -7.84889
   246   3    -7.84889    -7.84889    -7.84889
   247   2    -3.92444    -7.84889    -7.84889
   248   3     0.00000    -7.84889    -7.84889
   249   3     3.92444    -7.84889    -7.84889
   250   1     7.84889    -7.84889    -7.84889
   251   3    11.77333    -7.84889    -7.84889
   252   2    15.69777    -7.84889    -7.84889
   253   2    19.62221    -7.84889    -7.84889
   254   1   -19.62221    -3.92444    -7.84889
   255   3   -15.69777    -3.92444    -7.84889
   256   2   -11.77333    -3.92444    -7.84889
   257   2    -7.84889    -3.92444    -7.84889
   258   3    -3.92444    -3.92444    -7.84889
   259   3     0.00000    -3.92444    -7.84889
   260   3     3.92444    -3.92444    -7.84889
   261   3     7.84889    -3.92444    -7.84889
   262   3    11.77333    -3.92444    -7.84889
   263   2    15.69777    -3.92444    -7.84889
   264   2    19.62221    -3.92444    -7.84889
   265   1   -19.62221     0.00000    -7.84889
   266   2   -15.69777     0.00000    -7.84889
   267   3   -11.77333     0.00000    -7.84889
   268   3    -7.84889     0.00000    -7.84889
   269   3    -3.92444     0.00000    -7.84889
   270   3     0.00000     0.00000    -7.84889
   271   2     3.92444     0.00000    -7.84889
   272   2     7.84889     0.00000    -7.84889
   273   2    11.77333     0.00000    -7.84889
   274   2    15.69777     0.00000    -7.84889
   275   2    19.62221     0.00000    -7.84889
   276   1    23.54666     0.00000    -7.84889
   277   2   -19.62221     3.92444    -7.84889
   278   2   -15.69777     3.92444    -7.84889
   279   3   -11.77333     3.92444    -7.84889
   280   3    -7.84889     3.92444    -7.84889
   281   1    -3.92444     3.92444    -7.84889
   282   3     0.00000     3.92444    -7.84889
   283   3     3.92444     3.92444    -7.84889
   284   3     7.84889     3.92444    -7.84889
   285   3    11.77333     3.92444    -7.84889
   286   3    15.69777     3.92444    -7.84889
   287   1    19.62221     3.92444    -7.84889
   288   2   -19.62221     7.84889    -7.84889
   289   1   -15.69777     7.84889    -7.84889
   290   2   -11.77333     7.84889    -7.84889
   291   2    -7.84889     7.84889    -7.84889
   292   3    -3.92444     7.84889    -7.84889
   293   3     0.00000     7.84889    -7.84889
   294   3     3.92444     7.84889    -7.84889
   295   2     7.84889     7.84889    -7.84889
   296   1    11.77333     7.84889    -7.84889
   297   3    15.69777     7.84889    -7.84889
   298   1    19.62221     7.84889    -7.84889
   299   1   -19.62221    11.77333    -7.84889
   300   2   -15.69777    11.77333    -7.84889
   301   3   -11.77333    11.77333    -7.84889
   302   3    -7.84889    11.77333    -7.84889
   303   1    -3.92444    11.77333    -7.84889
   304   2     0.00000    11.77333    -7.84889
   305   1     3.92444    11.77333    -7.84889
   306   1     7.84889    11.77333    -7.84889
   307   2    11.77333    11.77333    -7.84889
   308   3    15.69777    11.77333    -7.84889
   309   2    19.62221    11.77333    -7.84889
   310   2   -15.69777    15.69777    -7.84889
   311   2   -11.77333    15.69777    -7.84889
   312   1    -7.84889    15.69777    -7.84889
   313   1    -3.92444    15.69777    -7.84889
   314   3     0.00000    15.69777    -7.84889
   315   1     3.92444    15.69777    -7.84889
   316   2     7.84889    15.69777    -7.84889
   317   2    11.77333    15.69777    -7.84889
   318   1    15.69777    15.69777    -7.84889
   319   2   -11.77333    19.62221    -7.84889
   320   2    -7.84889    19.62221    -7.84889
   321   2    -3.92444    19.62221    -7.84889
   322   1     0.00000    19.62221    -7.84889
   323   1     3.92444    19.62221    -7.84889
   324   1     7.84889    19.62221    -7.84889
   325   1    11.77333    19.62221    -7.84889
   326   2     0.00000   -23.54666    -3.92444
   327   2     3.92444   -23.54666    -3.92444
   328   1   -11.77333   -19.62221    -3.92444
   329   2    -7.84889   -19.62221    -3.92444
   330   3    -3.92444   -19.62221    -3.92444
   331   3     0.00000   -19.62221    -3.92444
   332   2     3.92444   -19.62221    -3.92444
   333   1     7.84889   -19.62221    -3.92444
   334   3    11.77333   -19.62221    -3.92444
   335   1   -15.69777   -15.69777    -3.92444
   336   3   -11.77333   -15.69777    -3.92444
   337   2    -7.84889   -15.69777    -3.92444
   338   2    -3.92444   -15.69777    -3.92444
   339   2     0.00000   -15.69777    -3.92444
   340   3     3.92444   -15.69777    -3.92444
   341   1     7.84889   -15.69777    -3.92444
   342   1    11.77333   -15.69777    -3.92444
   343   1    15.69777   -15.69777    -3.92444
   344   2   -19.62221   -11.77333    -3.92444
   345   1   -15.69777   -11.77333    -3.92444
   346   3   -11.77333   -11.77333    -3.92444
   347   2    -7.84889   -11.77333    -3.92444
   348   2    -3.92444   -11.77333    -3.92444
   349   2     0.00000   -11.77333    -3.92444
   350   3     3.92444   -11.77333    -3.92444
   351   1     7.84889   -11.77333    -3.92444
   352   3    11.77333   -11.77333    -3.92444
   353   3    15.69777   -11.77333    -3.92444
   354   1    19.62221   -11.77333    -3.92444
   355   3   -19.62221    -7.84889    -3.92444
   356   2   -15.69777    -7.84889    -3.92444
   357   2   -11.77333    -7.84889    -3.92444
   358   1    -7.84889    -7.84889    -3.92444
   359   3    -3.92444    -7.84889    -3.92444
   360   3     0.00000    -7.84889    -3.92444
   361   3     3.92444    -7.84889    -3.92444
   362   3     7.84889    -7.84889    -3.92444
   363   1    11.77333    -7.84889    -3.92444
   364   2    15.69777    -7.84889    -3.92444
   365   2    19.62221    -7.84889    -3.92444
   366   2   -19.62221    -3.92444    -3.92444
   367   2   -15.69777    -3.92444    -3.92444
   368   3   -11.77333    -3.92444    -3.92444
   369   2    -7.84889    -3.92444    -3.92444
   370   1    -3.92444    -3.92444    -3.92444
   371   3     0.00000    -3.92444    -3.92444
   372   3     3.92444    -3.92444    -3.92444
   373   3     7.84889    -3.92444    -3.92444
   374   3    11.77333    -3.92444    -3.92444
   375   3    15.69777    -3.92444    -3.92444
   376   1    19.62221    -3.92444    -3.92444
   377   2    23.54666    -3.92444    -3.92444
   378   2   -19.62221     0.00000    -3.92444
   379   2   -15.69777     0.00000    -3.92444
   380   3   -11.77333     0.00000    -3.92444
   381   2    -7.84889     0.00000    -3.92444
   382   2    -3.92444     0.00000    -3.92444
   383   3     0.00000     0.00000    -3.92444
   384   2     3.92444     0.00000    -3.92444
   385   3     7.84889     0.00000    -3.92444
   386   3    11.77333     0.00000    -3.92444
   387   3    15.69777     0.00000    -3.92444
   388   3    19.62221     0.00000    -3.92444
   389   2    23.54666     0.00000    -3.92444
   390   1   -23.54666     3.92444    -3.92444
   391   2   -19.62221     3.92444    -3.92444
   392   3   -15.69777     3.92444    -3.92444
   393   2   -11.77333     3.92444    -3.92444
   394   3    -7.84889     3.92444    -3.92444
   395   3    -3.92444     3.92444    -3.92444
   396   3     0.00000     3.92444    -3.92444
   397   3     3.92444     3.92444    -3.92444
   398   2     7.84889     3.92444    -3.92444
   399   2    11.77333     3.92444    -3.92444
   400   3    15.69777     3.92444    -3.92444
   401   3    19.62221     3.92444    -3.92444
   402   1    23.54666     3.92444    -3.92444
   403   2   -19.62221     7.84889    -3.92444
   404   1   -15.69777     7.84889    -3.92444
   405   1   -11.77333     7.84889    -3.92444
   406   1    -7.84889     7.84889    -3.92444
   407   2    -3.92444     7.84889    -3.92444
   408   3     0.00000     7.84889    -3.92444
   409   2     3.92444     7.84889    -3.92444
   410   2     7.84889     7.84889    -3.92444
   411   2    11.77333     7.84889    -3.92444
   412   2    15.69777     7.84889    -3.92444
   413   1    19.62221     7.84889    -3.92444
   414   1   -19.62221    11.77333    -3.92444
   415   2   -15.69777    11.77333    -3.92444
   416   2   -11.77333    11.77333    -3.92444
   417   3    -7.84889    11.77333    -3.92444
   418   2    -3.92444    11.77333    -3.92444
   419   2     0.00000    11.77333    -3.92444
   420   2     3.92444    11.77333    -3.92444
   421   2     7.84889    11.77333    -3.92444
   422   2    11.77333    11.77333    -3.92444
   423   2    15.69777    11.77333    -3.92444
   424   1    19.62221    11.77333    -3.92444
   425   2   -15.69777    15.69777    -3.92444
   426   3   -11.77333    15.69777    -3.92444
   427   2    -7.84889    15.69777    -3.92444
   428   3    -3.92444    15.69777    -3.92444
   429   1     0.00000    15.69777    -3.92444
   430   2     3.92444    15.69777    -3.92444
   431   3     7.84889    15.69777    -3.92444
   432   2    11.77333    15.69777    -3.92444
   433   1    15.69777    15.69777    -3.92444
   434   2   -11.77333    19.62221    -3.92444
   435   2    -7.84889    19.62221    -3.92444
   436   1    -3.92444    19.62221    -3.92444
   437   3     0.00000    19.62221    -3.92444
   438   1     3.92444    19.62221    -3.92444
   439   2     7.84889    19.62221    -3.92444
   440   2    11.77333    19.62221    -3.92444
   441   2    -3.92444    23.54666    -3.92444
   442   1     3.92444    23.54666    -3.92444
   443   1    -7.84889   -23.54666     0.00000
   444   2     0.00000   -23.54666     0.00000
   445   1     3.92444   -23.54666     0.00000
   446   1     7.84889   -23.54666     0.00000
   447   2   -11.77333   -19.62221     0.00000
   448   2    -7.84889   -19.62221     0.00000
   449   3    -3.92444   -19.62221     0.00000
   450   2     0.00000   -19.62221     0.00000
   451   2     3.92444   -19.62221     0.00000
   452   2     7.84889   -19.62221     0.00000
   453   1    11.77333   -19.62221     0.00000
   454   3   -15.69777   -15.69777     0.00000
   455   2   -11.77333   -15.69777     0.00000
   456   2    -7.84889   -15.69777     0.00000
   457   2    -3.92444   -15.69777     0.00000
   458   3     0.00000   -15.69777     0.00000
   459   3     3.92444   -15.69777     0.00000
   460   2     7.84889   -15.69777     0.00000
   461   3    11.77333   -15.69777     0.00000
   462   1    15.69777   -15.69777     0.00000
   463   2   -19.62221   -11.77333     0.00000
   464   1   -15.69777   -11.77333     0.00000
   465   1   -11.77333   -11.77333     0.00000
   466   3    -7.84889   -11.77333     0.00000
   467   1    -3.92444   -11.77333     0.00000
   468   3     0.00000   -11.77333     0.00000
   469   2     3.92444   -11.77333     0.00000
   470   1     7.84889   -11.77333     0.00000
   471   3    11.77333   -11.77333     0.00000
   472   3    15.69777   -11.77333     0.00000
   473   2    19.62221   -11.77333     0.00000
   474   1   -23.54666    -7.84889     0.00000
   475   2   -19.62221    -7.84889     0.00000
   476   3   -15.69777    -7.84889     0.00000
   477   2   -11.77333    -7.84889     0.00000
   478   2    -7.84889    -7.84889     0.00000
   479   3    -3.92444    -7.84889     0.00000
   480   3     0.00000    -7.84889     0.00000
   481   2     3.92444    -7.84889     0.00000
   482   3     7.84889    -7.84889     0.00000
   483   3    11.77333    -7.84889     0.00000
   484   1    15.69777    -7.84889     0.00000
   485   3    19.62221    -7.84889     0.00000
   486   3   -19.62221    -3.92444     0.00000
   487   2   -15.69777    -3.92444     0.00000
   488   2   -11.77333    -3.92444     0.00000
   489   2    -7.84889    -3.92444     0.00000
   490   3    -3.92444    -3.92444     0.00000
   491   3     0.00000    -3.92444     0.00000
   492   3     3.92444    -3.92444     0.00000
   493   3     7.84889    -3.92444     0.00000
   494   3    11.77333    -3.92444     0.00000
   495   3    15.69777    -3.92444     0.00000
   496   2    19.62221    -3.92444     0.00000
   497   1    23.54666    -3.92444     0.00000
   498   1   -23.54666     0.00000     0.00000
   499   2   -19.62221     0.00000     0.00000
   500   1   -15.69777     0.00000     0.00000
   501   2   -11.77333     0.00000     0.00000
   502   3    -7.84889     0.00000     0.00000
   503   3    -3.92444     0.00000     0.00000
   504   3     0.00000     0.00000     0.00000
   505   3     3.92444     0.00000     0.00000
   506   3     7.84889     0.00000     0.00000
   507   3    11.77333     0.00000     0.00000
   508   2    15.69777     0.00000     0.00000
   509   2    19.62221     0.00000     0.00000
   510   2    23.54666     0.00000     0.00000
   511   2   -19.62221     3.92444     0.00000
   512   1   -15.69777     3.92444     0.00000
   513   2   -11.77333     3.92444     0.00000
   514   3    -7.84889     3.92444     0.00000
   515   3    -3.92444     3.92444     0.00000
   516   3     0.00000     3.92444     0.00000
   517   3     3.92444     3.92444     0.00000
   518   3     7.84889     3.92444     0.00000
   519   2    11.77333     3.92444     0.00000
   520   2    15.69777     3.92444     0.00000
   521   3    19.62221     3.92444     0.00000
   522   2    23.54666     3.92444     0.00000
   523   2   -23.54666     7.84889     0.00000
   524   1   -19.62221     7.84889     0.00000
   525   2   -15.69777     7.84889     0.00000
   526   3   -11.77333     7.84889     0.00000
   527   1    -7.84889     7.84889     0.00000
   528   3    -3.92444     7.84889     0.00000
   529   3     0.00000     7.84889     0.00000
   530   3     3.92444     7.84889     0.00000
   531   3     7.84889     7.84889     0.00000
   532   2    11.77333     7.84889     0.00000
   533   1    15.69777     7.84889     0.00000
   534   3    19.62221     7.84889     0.00000
   535   2    23.54666     7.84889     0.00000
   536   2   -19.62221    11.77333     0.00000
   537   2   -15.69777    11.77333     0.00000
   538   3   -11.77333    11.77333     0.00000
   539   3    -7.84889    11.77333     0.00000
   540   2    -3.92444    11.77333     0.00000
   541   3     0.00000    11.77333     0.00000
   542   1     3.92444    11.77333     0.00000
   543   3     7.84889    11.77333     0.00000
   544   1    11.77333    11.77333     0.00000
   545   2    15.69777    11.77333     0.00000
   546   3    19.62221    11.77333     0.00000
   547   2   -15.69777    15.69777     0.00000
   548   1   -11.77333    15.69777     0.00000
   549   3    -7.84889    15.69777     0.00000
   550   1    -3.92444    15.69777     0.00000
   551   3     0.00000    15.69777     0.00000
   552   2     3.92444    15.69777     0.00000
   553   2     7.84889    15.69777     0.00000
   554   3    11.77333    15.69777     0.00000
   555   3    15.69777    15.69777     0.00000
   556   2   -11.77333    19.62221     0.00000
   557   3    -7.84889    19.62221     0.00000
   558   2    -3.92444    19.62221     0.00000
   559   3     0.00000    19.62221     0.00000
   560   1     3.92444    19.62221     0.00000
   561   2     7.84889    19.62221     0.00000
   562   2    11.77333    19.62221     0.00000
   563   1    -3.92444    23.54666     0.00000
   564   2     0.00000    23.54666     0.00000
   565   2     3.92444    23.54666     0.00000
   566   1    -3.92444   -23.54666     3.92444
   567   1     0.00000   -23.54666     3.92444
   568   1     3.92444   -23.54666     3.92444
   569   2   -11.77333   -19.62221     3.92444
   570   1    -7.84889   -19.62221     3.92444
   571   3    -3.92444   -19.62221     3.92444
   572   1     0.00000   -19.62221     3.92444
   573   1     3.92444   -19.62221     3.92444
   574   2     7.84889   -19.62221     3.92444
   575   2    11.77333   -19.62221     3.92444
   576   2   -15.69777   -15.69777     3.92444
   577   1   -11.77333   -15.69777     3.92444
   578   1    -7.84889   -15.69777     3.92444
   579   3    -3.92444   -15.69777     3.92444
   580   1     0.00000   -15.69777     3.92444
   581   1     3.92444   -15.69777     3.92444
   582   1     7.84889   -15.69777     3.92444
   583   2    11.77333   -15.69777     3.92444
   584   2    15.69777   -15.69777     3.92444
   585   2   -19.62221   -11.77333     3.92444
   586   1   -15.69777   -11.77333     3.92444
   587   2   -11.77333   -11.77333     3.92444
   588   3    -7.84889   -11.77333     3.92444
   589   1    -3.92444   -11.77333     3.92444
   590   3     0.00000   -11.77333     3.92444
   591   3     3.92444   -11.77333     3.92444
   592   2     7.84889   -11.77333     3.92444
   593   1    11.77333   -11.77333     3.92444
   594   2    15.69777   -11.77333     3.92444
   595   2    19.62221   -11.77333     3.92444
   596   2   -19.62221    -7.84889     3.92444
   597   2   -15.69777    -7.84889     3.92444
   598   1   -11.77333    -7.84889     3.92444
   599   3    -7.84889    -7.84889     3.92444
   600   1    -3.92444    -7.84889     3.92444
   601   1     0.00000    -7.84889     3.92444
   602   3     3.92444    -7.84889     3.92444
   603   3     7.84889    -7.84889     3.92444
   604   2    11.77333    -7.84889     3.92444
   605   2    15.69777    -7.84889     3.92444
   606   1    19.62221    -7.84889     3.92444
   607   2   -23.54666    -3.92444     3.92444
   608   2   -19.62221    -3.92444     3.92444
   609   2   -15.69777    -3.92444     3.92444
   610   3   -11.77333    -3.92444     3.92444
   611   3    -7.84889    -3.92444     3.92444
   612   3    -3.92444    -3.92444     3.92444
   613   3     0.00000    -3.92444     3.92444
   614   2     3.92444    -3.92444     3.92444
   615   2     7.84889    -3.92444     3.92444
   616   3    11.77333    -3.92444     3.92444
   617   3    15.69777    -3.92444     3.92444
   618   2    19.62221    -3.92444     3.92444
   619   1    23.54666    -3.92444     3.92444
   620   1   -23.54666     0.00000     3.92444
   621   3   -19.62221     0.00000     3.92444
   622   2   -15.69777     0.00000     3.92444
   623   2   -11.77333     0.00000     3.92444
   624   3    -7.84889     0.00000     3.92444
   625   1    -3.92444     0.00000     3.92444
   626   3     0.00000     0.00000     3.92444
   627   2     3.92444     0.00000     3.92444
   628   3     7.84889     0.00000     3.92444
   629   3    11.77333     0.00000     3.92444
   630   1    15.69777     0.00000     3.92444
   631   2    19.62221     0.00000     3.92444
   632   1    23.54666     0.00000     3.92444
   633   3   -23.54666     3.92444     3.92444
   634   3   -19.62221     3.92444     3.92444