4091
 Atoms. Timestep: 4193
2 -0.180506 -7.71335 -22.704
1 -3.70224 -3.77966 -22.7003
2 0.0168836 -3.62535 -22.8408
2 3.59284 -3.46738 -22.587
1 -4.21017 0.301862 -22.6358
2 -0.0449046 0.349748 -23.4303
2 3.81002 -0.419823 -23.0135
2 -3.67847 3.92307 -22.6652
1 4.23772 3.28238 -22.3857
2 -7.6182 -11.7225 -18.7377
2 -3.99522 -11.8869 -19.1969
2 0.193025 -11.6539 -19.0855
1 3.49964 -11.5407 -19.447
1 7.99446 -11.2397 -19.2054
1 -11.3628 -8.01411 -18.7007
2 -7.69646 -7.71561 -18.9888
1 -3.50286 -7.79373 -19.0041
1 0.0644561 -7.74966 -18.7686
2 3.77105 -7.52917 -19.0388
2 7.61551 -7.46973 -18.9371
1 11.4723 -7.74245 -19.0002
1 -11.539 -4.23589 -19.1813
3 -7.48008 -3.85782 -19.0175
3 -3.69689 -3.79008 -18.6512
2 -0.0795636 -3.94661 -18.8353
1 3.78302 -3.80371 -18.7726
3 7.61274 -3.80445 -18.8183
1 11.3542 -3.95129 -19.6999
2 -11.3589 -0.487583 -19.5681
3 -7.47541 -0.0808196 -18.8343
2 -3.68178 -0.120621 -18.7512
2 -0.03549 -0.0908097 -18.8835
2 3.71253 -0.132042 -18.6829
1 7.63148 -0.0241325 -18.7885
2 11.4227 -0.0650161 -19.1679
2 -12.217 4.85039 -19.7029
1 -7.5929 3.85698 -18.8778
2 -3.80101 3.73009 -18.816
2 0.0194233 3.71062 -18.8741
2 3.82875 3.41172 -19.0492
2 7.38843 3.41821 -18.7421
1 11.2988 4.02357 -19.2693
2 -11.9183 7.52498 -19.0067
3 -7.60739 7.27184 -18.8941
2 -3.65051 7.57151 -18.7236
2 0.121066 7.55276 -18.9696
2 3.74009 7.44391 -18.9484
2 8.15224 8.35619 -19.4621
2 10.6974 8.42678 -18.9504
2 -7.82984 11.0899 -19.1981
2 -3.81366 11.2955 -19.286
1 0.0470483 11.5354 -19.2472
2 4.3637 11.6404 -19.248
2 -7.9533 -15.4675 -14.5407
2 -3.81738 -15.2267 -14.9524
1 0.274849 -15.6947 -15.5687
1 3.93763 -14.8714 -15.3538
2 8.20482 -15.2129 -16.2562
3 -11.2128 -11.382 -14.9932
1 -7.44286 -11.6022 -15.0482
3 -3.81158 -11.2961 -14.8825
3 -0.00890248 -11.3482 -14.8902
2 3.49544 -11.2923 -15.1837
2 7.4353 -11.1619 -15.0434
2 11.1709 -11.3957 -15.304
1 -15.0794 -7.76313 -15.3925
3 -11.1823 -7.58075 -15.0979
2 -7.5174 -7.58927 -14.9748
1 -3.71983 -7.6515 -15.1157
3 0.0537793 -7.60519 -15.0508
2 3.81759 -7.4926 -14.8564
1 7.57557 -7.46313 -15.0499
2 11.1843 -7.55096 -14.9678
2 14.9945 -7.6696 -15.1095
2 -14.8383 -3.87746 -15.2752
3 -11.4543 -3.68749 -15.1683
1 -7.5156 -3.85777 -15.0056
2 -3.67703 -3.92511 -14.8524
3 -0.127216 -3.8925 -14.9027
1 3.6152 -3.8548 -14.885
3 7.52251 -3.82207 -15.0081
2 11.3239 -3.83031 -15.1084
2 15.0884 -3.75241 -15.0546
2 -15.39 -0.0896631 -16.2756
1 -11.182 -0.0198331 -14.9776
3 -7.48565 -0.0893264 -15.0541
3 -3.69504 0.0374462 -14.9633
1 -0.0174401 -0.0288394 -14.8948
2 3.67793 -0.177715 -14.8206
2 7.45827 -0.16638 -14.9913
3 11.258 -0.0800869 -15.1434
2 15.2653 0.0519656 -15.2529
1 -14.8246 3.87642 -15.1625
3 -11.4242 3.93647 -15.1039
3 -7.5661 3.82082 -15.0208
2 -3.77597 3.68987 -15.0849
2 -0.0637621 3.66626 -14.9356
3 3.76111 3.72101 -14.9754
2 7.39354 3.65247 -15.0906
3 11.1017 3.74175 -14.9926
2 15.1981 3.99506 -15.3575
1 -15.4002 7.79229 -15.6527
1 -11.2713 7.68245 -15.1642
3 -7.54503 7.54146 -15.1279
1 -3.82282 7.56723 -15.0539
1 0.0377277 7.57407 -15.1202
3 3.77744 7.5529 -15.0767
1 7.59333 7.67408 -15.2452
1 11.2916 7.59588 -15.2613
2 14.6678 8.47625 -15.3452
1 -11.7552 11.5122 -15.8232
2 -7.47261 11.4049 -15.1769
1 -3.70436 11.3688 -15.1264
2 0.180061 11.2285 -15.1261
1 3.80168 11.2187 -15.1552
1 7.61037 11.36 -15.2368
1 10.9804 11.9942 -15.2618
1 -8.02513 14.9155 -15.6128
2 -3.51279 15.2211 -15.3061
2 0.17843 15.1507 -15.1914
2 3.49194 15.156 -15.3531
1 7.60424 15.6845 -15.2677
1 -8.20048 -18.8573 -10.6494
1 -3.89998 -19.2749 -11.4193
2 0.365347 -19.2121 -11.6958
3 3.80121 -18.5708 -11.2333
3 -11.3988 -15.1083 -11.0662
2 -7.45951 -15.1731 -11.198
2 -3.74872 -15.0534 -11.313
3 0.0220633 -15.0385 -11.2443
2 3.80471 -15.0047 -11.1207
2 7.61901 -15.0317 -11.4619
1 11.066 -15.1845 -11.8126
2 -14.9162 -11.2335 -11.305
2 -11.2986 -11.209 -11.2752
2 -7.61072 -11.1063 -11.2354
3 -3.7746 -11.1366 -11.1727
3 -0.0127276 -11.1399 -11.3135
3 3.72871 -11.2919 -11.1286
2 7.55223 -11.2746 -11.3129
1 11.2213 -11.1384 -11.3208
1 14.9907 -11.7403 -12.1101
2 -18.8173 -7.63341 -11.4934
2 -14.9945 -7.4255 -11.1912
3 -11.2251 -7.38418 -11.2988
3 -7.45568 -7.45668 -11.1476
2 -3.63352 -7.55428 -11.2149
3 -0.0116294 -7.56121 -11.1745
1 3.60663 -7.5174 -11.093
3 7.48563 -7.54351 -11.25
2 11.3344 -7.39432 -11.2485
1 15.1603 -7.64583 -11.2639
1 18.3852 -7.88189 -11.1538
2 -18.9697 -3.72439 -11.3676
3 -15.1275 -3.81674 -11.198
2 -11.2714 -3.63597 -11.2116
2 -7.47132 -3.76955 -11.2152
2 -3.74651 -3.79449 -11.2769
2 -0.04113 -3.73921 -11.1415
3 3.75066 -3.76171 -10.9996
3 7.47671 -3.73942 -11.1871
1 11.2069 -3.71682 -11.1719
2 15.211 -3.82504 -11.1418
1 19.0577 -4.05735 -11.1506
1 -19.4587 -0.229442 -12.0099
1 -15.2455 -0.177319 -11.257
3 -11.171 -0.00501442 -11.1325
3 -7.55251 -0.0566944 -11.2721
3 -3.6694 0.0583542 -11.0811
2 0.00880116 0.0444814 -11.1294
3 3.69014 -0.0316024 -11.1558
2 7.345 0.00949695 -11.243
3 11.203 0.0920281 -11.313
3 15.0118 0.0830347 -11.2799
1 19.1668 -0.00541595 -11.6032
2 -18.8973 3.84441 -11.8813
3 -15.1099 3.83653 -11.4469
2 -11.2432 3.81864 -11.2563
2 -7.47556 3.81728 -11.2532
3 -3.77934 3.72492 -11.1898
3 0.0366609 3.72801 -11.1701
3 3.59485 3.83858 -11.2083
2 7.25924 3.74945 -11.2148
2 11.0714 3.68965 -11.1794
1 14.9819 3.68984 -11.3592
2 18.8042 4.04088 -11.7837
1 -15.1175 7.54552 -11.3304
1 -11.3689 7.69073 -11.3424
3 -7.4685 7.48475 -11.2499
2 -3.75132 7.49505 -11.1654
3 0.0954039 7.52983 -11.2989
2 3.70927 7.40012 -11.2881
1 7.42477 7.43855 -11.2051
2 11.2513 7.49445 -11.2547
2 15.0834 7.6197 -11.4065
2 18.2378 7.92583 -11.4847
2 -15.0298 11.4803 -12.0053
2 -11.4339 11.4169 -11.4832
1 -7.48032 11.2563 -11.3342
1 -3.69171 11.2324 -11.304
2 0.0924707 11.3807 -11.3164
3 3.77306 11.386 -11.3509
3 7.48491 11.2877 -11.3669
2 11.2567 11.2509 -11.2953
2 14.4604 11.7402 -11.5169
2 -11.5879 14.9243 -11.9342
2 -7.52802 15.0652 -11.3169
3 -3.66733 15.2139 -11.1981
1 0.0450803 15.2159 -11.4164
1 3.76997 15.261 -11.587
1 7.59562 15.0185 -11.3629
2 10.934 15.5399 -11.4885
2 -3.64931 19.1325 -11.5894
2 0.554991 19.2765 -11.9007
1 2.85594 19.5657 -12.1847
2 7.09653 19.3075 -11.5372
2 -11.9293 -18.5741 -7.44055
2 -7.73948 -19.2933 -8.14371
3 -3.83487 -18.7958 -7.66945
2 0.068375 -18.8961 -7.37881
2 3.85501 -18.8513 -7.43305
1 8.47378 -19.6583 -9.08821
2 10.8344 -19.0975 -8.13101
1 -15.4145 -15.1785 -7.82864
3 -11.2701 -14.9246 -7.40702
2 -7.5694 -15.0504 -7.42222
3 -3.80871 -14.96 -7.46372
1 0.0813792 -14.9517 -7.34571
1 3.81259 -15.0423 -7.45857
1 7.60693 -15.1043 -7.57059
2 11.2505 -15.0751 -7.63104
2 14.5071 -15.3364 -8.03171
1 -18.7065 -11.1301 -7.84514
3 -14.9337 -11.1852 -7.18487
3 -11.1721 -11.1999 -7.47868
3 -7.52957 -11.2743 -7.41697
3 -3.64619 -11.1104 -7.36708
2 0.155916 -11.233 -7.34572
2 3.82008 -11.2051 -7.47523
2 7.4809 -11.2911 -7.38803
3 11.2453 -11.3493 -7.52009
2 15.1326 -11.3544 -7.48574
1 -19.0375 -7.90607 -7.77747
2 -14.9025 -7.49867 -7.30454
2 -11.2184 -7.35004 -7.51119
3 -7.43602 -7.4023 -7.40155
2 -3.56201 -7.39598 -7.49454
3 -0.0694764 -7.41657 -7.47525
3 3.65473 -7.51164 -7.41691
1 7.39697 -7.45812 -7.40987
3 11.1899 -7.50046 -7.39052
2 15.0701 -7.59896 -7.24808
2 19.3798 -8.607 -7.65856
1 -18.9053 -3.63928 -7.7474
3 -15.1311 -3.60921 -7.49108
2 -11.2665 -3.68332 -7.55158
2 -7.42243 -3.65667 -7.52581
3 -3.71432 -3.68204 -7.31427
3 -0.0174453 -3.71325 -7.32119
3 3.57555 -3.71291 -7.35101
3 7.43645 -3.70051 -7.48978
3 11.2353 -3.7498 -7.45458
2 15.1086 -3.6832 -7.47466
2 18.9547 -3.84252 -7.39846
1 -19.0871 -0.138642 -7.90135
2 -15.1464 0.0473254 -7.56583
3 -11.1587 0.0656975 -7.41013
3 -7.33697 0.0858794 -7.37473
3 -3.61103 0.0301324 -7.33658
3 0.00816552 -0.123814 -7.34967
2 3.53614 0.0147398 -7.24303
2 7.16092 0.0440006 -7.40696
2 11.316 0.124248 -7.46247
2 15.0792 -0.0950332 -7.37864
2 18.8974 0.173069 -7.51626
1 22.4908 -0.352739 -7.54017
2 -18.8731 3.86673 -7.57625
2 -15.0954 3.83054 -7.53226
3 -11.3048 3.93645 -7.52372
3 -7.43512 3.7324 -7.54733
1 -3.75388 3.68404 -7.45185
3 0.00751469 3.64436 -7.47885
3 3.46987 3.69719 -7.45767
3 7.25891 3.64567 -7.41066
3 11.0665 3.6225 -7.37991
3 14.92 3.64365 -7.43598
1 18.7185 3.89552 -7.56565
2 -19.3258 8.03785 -8.32778
1 -15.2466 7.62245 -7.69551
2 -11.2913 7.5936 -7.57213
2 -7.5982 7.46416 -7.46528
3 -3.69154 7.28254 -7.47584
3 0.0815377 7.36324 -7.45393
3 3.69499 7.41033 -7.41187
2 7.41235 7.30254 -7.52009
1 11.0656 7.37554 -7.38594
3 14.8081 7.48136 -7.43428
1 18.7397 7.66558 -7.51523
1 -18.99 11.555 -8.40168
2 -15.144 11.3861 -7.544
3 -11.3123 11.3758 -7.54451
3 -7.40314 11.1403 -7.60648
1 -3.67514 11.1529 -7.52011
2 0.0112226 11.1866 -7.47764
1 3.72371 11.153 -7.49224
1 7.36405 11.2025 -7.48694
2 11.054 11.1986 -7.33825
3 14.8912 11.3352 -7.3988
2 18.2117 11.2545 -7.93957
2 -15.1344 15.071 -8.34089
2 -11.2503 15.2649 -7.65341
1 -7.55233 15.1102 -7.57317
1 -3.87351 14.9925 -7.52218
3 -0.034775 15.0322 -7.40126
1 3.65935 15.185 -7.43979
2 7.47185 15.1037 -7.48376
2 11.2128 14.9265 -7.4737
1 14.8229 15.5806 -7.94063
2 -11.4063 18.6808 -7.95348
2 -7.75502 19.4825 -8.22153
2 -3.82412 18.9353 -7.2022
1 -0.0933426 18.8373 -7.68446
1 3.8349 19.075 -7.39612
1 8.6008 20.2925 -7.54843
1 10.92 19.2053 -7.82669
2 0.42026 -22.8819 -3.99878
2 3.03798 -22.8121 -2.83298
1 -11.4943 -18.9281 -3.96969
2 -7.62111 -18.8436 -3.72123
3 -3.85878 -18.8158 -3.7573
3 0.00445258 -18.7798 -3.71322
2 3.85287 -18.7439 -3.57077
1 7.49973 -19.6482 -4.11808
3 11.3609 -18.921 -3.42356
1 -15.1991 -15.2236 -4.05621
3 -11.4263 -15.3014 -3.64928
2 -7.60564 -15.033 -3.84855
2 -3.71011 -15.0619 -3.71922
2 0.124229 -15.0219 -3.7224
3 3.84886 -15.0488 -3.63162
1 7.7475 -15.018 -3.72704
1 11.6998 -15.2427 -3.84934
1 15.6772 -16.2462 -4.14223
2 -18.7811 -11.4021 -3.80151
1 -15.104 -11.3192 -3.76324
3 -11.2583 -11.1216 -3.72626
2 -7.47168 -11.128 -3.73299
2 -3.74803 -11.1733 -3.71689
2 0.0894034 -11.1983 -3.72012
3 3.83812 -11.1931 -3.62962
1 7.36329 -11.2339 -3.60572
3 11.261 -11.2885 -3.68537
3 15.0829 -11.167 -3.65094
1 19.2327 -12.5852 -4.21287
3 -18.9085 -7.6614 -3.79391
2 -15.002 -7.43201 -3.73045
2 -11.236 -7.32682 -3.66353
1 -7.45779 -7.44156 -3.66348
3 -3.56409 -7.27224 -3.80786
3 0.168726 -7.24557 -3.68482
3 3.65273 -7.33403 -3.57111
3 7.40854 -7.40589 -3.66987
1 11.1929 -7.49658 -3.71854
2 15.0125 -7.48169 -3.81149
2 18.899 -7.45504 -3.61685
2 -18.9422 -3.72959 -3.78368
2 -15.1458 -3.73079 -3.77776
3 -11.1734 -3.70885 -3.68838
2 -7.3361 -3.77973 -3.70575
1 -3.63455 -3.67588 -3.61139
3 -0.0742283 -3.7427 -3.63372
3 3.58113 -3.54744 -3.58482
3 7.40398 -3.70012 -3.61244
3 11.105 -3.75424 -3.7014
3 14.9587 -3.86022 -3.69869
1 18.7999 -3.52893 -3.74599
2 22.6823 -3.90389 -3.87446
2 -18.8354 0.165207 -3.82899
2 -15.0334 0.0384384 -3.6372
3 -11.1544 0.0345461 -3.74187
2 -7.43431 0.00959347 -3.77429
2 -3.58178 0.127175 -3.61036
3 -0.194791 0.0715679 -3.56366
2 3.54339 -0.006877 -3.65344
3 7.32265 0.0678079 -3.59384
3 11.0456 0.0691364 -3.67644
3 15.0443 0.0839425 -3.74872
3 18.7649 -0.0689561 -3.72364
2 22.7984 -0.174124 -3.66375
1 -22.0174 3.13479 -3.94509
2 -18.6968 3.95235 -3.82962
3 -15.0454 3.92559 -3.68091
2 -11.1411 3.77924 -3.67756
3 -7.41081 3.74166 -3.62361
3 -3.66959 3.64801 -3.65177
3 -0.0321087 3.64717 -3.69555
3 3.53619 3.71789 -3.64335
2 7.32277 3.72917 -3.61364
2 11.1207 3.77154 -3.61109
3 15.0184 3.74017 -3.80205
3 18.8043 3.78637 -3.90588
1 22.4193 3.90372 -3.80995
2 -19.056 7.48278 -3.83847
1 -15.0083 7.60542 -3.72765
1 -11.2857 7.5518 -3.75147
1 -7.44495 7.40837 -3.75455
2 -3.72266 7.26293 -3.71409
3 -0.0532516 7.18442 -3.66625
2 3.64015 7.25459 -3.76342
2 7.31214 7.28173 -3.69709
2 11.0598 7.36167 -3.7219
2 14.873 7.34912 -3.75206
1 18.6476 7.70234 -3.82947
1 -19.7505 11.7445 -4.39469
2 -15.0319 11.3418 -3.9026
2 -11.2888 11.3072 -3.62917
3 -7.54572 11.1743 -3.72684
2 -3.70531 11.0959 -3.71005
2 -0.0354227 11.0985 -3.67912
2 3.7032 11.1435 -3.68894
2 7.31993 11.1943 -3.69639
2 10.9808 11.1147 -3.73585
2 14.8311 11.2009 -3.66295
1 18.8174 11.5859 -3.76437
2 -15.3638 15.1195 -4.13412
3 -11.4978 15.1772 -3.8863
2 -7.48202 14.9557 -3.73676
3 -3.85664 14.9803 -3.70153
1 -0.0898604 15.0017 -3.68771
2 3.80667 15.1029 -3.75205
3 7.49619 15.1015 -3.57982
2 11.38 15.2472 -3.39591
1 15.0578 15.3201 -3.73978
2 -11.3833 19.4835 -4.04167
2 -7.42662 18.8003 -3.71287
1 -3.84044 18.7888 -3.74312
3 -0.0143536 18.8079 -3.73104
1 3.5807 18.9187 -3.68906
2 7.62477 19.1114 -3.57615
2 11.1972 18.8051 -3.70044
2 -3.72961 22.5253 -3.60034
1 3.58471 22.6958 -3.69224
1 -7.49884 -22.1767 0.117729
2 -0.602807 -23.1398 0.7537
1 3.10329 -23.0366 0.295191
1 5.30605 -22.8747 1.61987
2 -11.6677 -19.4626 -0.105264
2 -7.2915 -18.7863 -0.212506
3 -3.79188 -18.9633 0.0165726
2 -0.0404672 -18.7648 0.0341946
2 3.90654 -18.7316 0.189784
2 7.56228 -18.7658 0.180987
1 11.2301 -19.107 0.0839872
3 -15.0884 -15.1615 0.0796096
2 -11.2272 -14.9152 0.0658896
2 -7.50978 -15.0132 -0.102635
2 -3.75595 -14.9519 -0.0439476
3 0.104663 -14.9884 -0.0595063
3 3.75989 -14.9228 0.020492
2 7.7841 -15.0487 0.0451328
3 11.4714 -15.1124 0.0416407
1 15.3041 -15.8966 0.128029
2 -19.0263 -11.5264 -0.0549638
1 -15.0929 -11.2792 -0.157153
1 -11.1612 -11.2453 0.0674237
3 -7.42916 -11.122 0.0220715
1 -3.61942 -11.1596 -0.0641566
3 0.110306 -11.1199 0.0221719
2 3.73955 -11.1539 0.0815512
1 7.47104 -11.3284 0.0180901
3 11.2938 -11.149 0.11154
3 15.1498 -11.2079 0.142239
2 19.0351 -11.6502 -0.253912
1 -22.6805 -7.30643 -0.0591731
2 -18.8163 -7.50935 -0.106287
3 -15.0204 -7.29579 -0.128095
2 -11.1305 -7.32351 0.0904429
2 -7.39299 -7.32648 0.0172321
3 -3.77466 -7.44601 -0.1497
3 0.0786517 -7.34318 -0.0959282
2 3.71027 -7.36612 0.0196355
3 7.3533 -7.41335 0.0496248
3 11.2849 -7.40667 -0.0419175
1 14.9568 -7.39462 0.0295926
3 18.9367 -7.56277 0.0275522
3 -18.8467 -3.67904 -0.131908
2 -15.0389 -3.57091 0.134654
2 -11.1495 -3.58717 0.0925897
2 -7.4366 -3.72697 0.0846799
3 -3.67983 -3.70452 0.00872308
3 -0.0174159 -3.71461 -0.0525377
3 3.67431 -3.67454 -0.0719762
3 7.3775 -3.7245 0.00922662
3 11.228 -3.70344 0.119182
3 14.9412 -3.62461 0.0227222
2 18.7496 -3.70223 -0.024501
1 23.0807 -2.95588 0.320534
1 -22.8222 0.0248681 0.0276803
2 -18.7907 0.0838846 0.0110441
1 -15.0169 0.0652428 -0.0112474
2 -11.0662 0.169786 0.0238033
3 -7.39392 0.103794 0.0517815
3 -3.56909 0.0631994 0.00933039
3 0.0259785 -0.128633 0.0190137
3 3.63045 0.0604056 0.0588178
3 7.35165 0.0671565 0.0977124
3 11.0725 -0.0318588 0.11979
2 14.9287 -0.0273706 -0.100704
2 18.7498 0.00450559 0.13329
2 23.265 -0.343245 0.138034
2 -18.8534 3.89013 -0.0537605
1 -14.9493 3.727 -0.0945589
2 -11.1554 3.78938 -0.207059
3 -7.42527 3.69685 0.0563547
3 -3.75042 3.86643 0.0984451
3 -0.0715069 3.70004 -0.0909896
3 3.55698 3.73871 0.0375761
3 7.30693 3.6615 0.0592825
2 11.0173 3.71396 0.122586
2 14.9719 3.6181 0.137929
3 18.9209 3.75818 -0.0213177
2 22.6548 3.68262 -0.111123
2 -22.5442 7.53591 0.0287845
1 -19.0442 7.69961 0.129324
2 -15.1341 7.6536 0.135028
3 -11.2132 7.52829 -0.0576928
1 -7.4669 7.44051 -0.0311703
3 -3.79888 7.33963 0.00685436
3 -0.0282031 7.336 0.04301
3 3.71404 7.28363 0.0363476
3 7.42689 7.3489 0.0174726
2 11.0799 7.41421 0.0603346
1 14.8975 7.41272 0.00266726
3 18.7635 7.47492 0.0240124
2 22.7973 7.37698 -0.232388
2 -19.8283 11.5146 0.0706759
2 -15.136 11.6562 0.0983439
3 -11.1416 11.2982 -0.0504818
3 -7.50104 10.9952 -0.108921
2 -3.73257 11.0973 -0.124634
3 0.0181364 11.2207 -0.0621221
1 3.63022 11.2065 0.118224
3 7.43382 11.1717 0.127832
1 11.1334 11.2154 0.0523617
2 15.0794 11.1973 -0.0223196
3 18.6327 11.4333 -0.0971592
2 -15.4776 14.8749 -0.0534081
1 -11.1273 15.1105 0.110117
3 -7.47987 14.89 -0.0229117
1 -3.70238 14.8689 -0.123125
3 -0.0275061 15.0212 -0.0442955
2 3.67398 14.9551 0.085738
2 7.45131 15.0044 0.0943129
3 11.4366 15.2284 0.213221
3 15.1027 15.1935 0.360653
2 -11.3885 18.8054 -0.00853856
3 -7.81285 18.9733 0.118044
2 -3.71493 18.7928 0.0226125
3 -0.00723122 18.9054 0.0943374
1 3.62452 19.0267 0.0895779
2 7.55634 18.9188 0.326058
2 11.2406 18.9486 0.112791
1 -3.9878 22.7188 0.159841
2 0.124719 23.0613 0.134125
2 3.93193 23.2377 -0.66088
1 -4.41225 -22.1562 3.98103
1 -0.145914 -22.5939 4.16241
1 3.7014 -22.5758 3.80332
2 -11.302 -19.0595 4.44684
1 -7.5077 -18.9224 3.60085
3 -3.82022 -18.8542 3.66627
1 -0.0208123 -18.8388 3.70028
1 3.6429 -18.7371 3.85788
2 7.49068 -18.8062 3.85366
2 11.2634 -19.18 3.98316
2 -15.3699 -15.1166 3.87426
1 -11.3454 -14.9242 3.81253
1 -7.47663 -15.0059 3.72872
3 -3.59375 -14.9915 3.78563
1 0.102122 -15.0368 3.88461
1 3.74632 -14.9974 3.79362
1 7.48425 -15.0786 4.02303
2 11.5141 -15.1228 3.8546
2 15.0374 -15.2522 3.90741
2 -19.5909 -11.832 4.19175
1 -15.2619 -11.3884 3.70687
2 -11.2883 -11.1507 3.59931
3 -7.32152 -11.194 3.66142
1 -3.8335 -11.1776 3.74463
3 -0.0433854 -11.2178 3.77454
3 3.70334 -11.2396 3.70398
2 7.33289 -11.269 3.8297
1 11.249 -11.1967 3.95856
2 15.1246 -11.1672 3.8808
2 18.8467 -11.3913 3.72399
2 -18.8252 -7.34405 3.65187
2 -15.067 -7.45479 3.76104
1 -11.2422 -7.30605 3.737
3 -7.46257 -7.34587 3.57308
1 -3.73814 -7.45566 3.76562
1 -0.0556466 -7.41574 3.74294
3 3.68518 -7.48879 3.6586
3 7.37647 -7.47272 3.7764
2 11.2424 -7.38486 3.7553
2 14.9801 -7.43297 3.71198
1 19.0844 -7.38118 3.67569
2 -22.5946 -3.82467 3.67264
2 -18.7176 -3.64564 3.83376
2 -14.924 -3.60434 3.83264
3 -10.991 -3.65727 3.73149
3 -7.38155 -3.63614 3.75676
3 -3.68983 -3.66794 3.77164
3 0.0921008 -3.75357 3.69119
2 3.63703 -3.58368 3.66221
2 7.39716 -3.68043 3.76075
3 11.1156 -3.70907 3.76486
3 14.8927 -3.76389 3.94344
2 18.7419 -3.79724 3.84968
1 23.0048 -3.83906 2.92788
1 -23.0542 0.0670636 3.95854
3 -18.8071 0.0677514 3.76405
2 -14.9747 0.062041 3.82
2 -10.9682 0.057563 3.79618
3 -7.33417 -0.018964 3.77256
1 -3.63506 -0.0446434 3.69088
3 -0.0419539 0.0425155 3.56441
2 3.69949 -0.00932219 3.67481
3 7.36331 0.16897 3.72712
3 11.198 -0.0494552 3.7876
1 14.863 0.106443 3.81303
2 18.8564 -0.0188701 4.08778
1 22.7445 0.258888 4.31367
3 -22.7204 3.77525 3.76994
3 -18.8651 3.84243 3.81125
2 -14.9148 3.69178 3.79999
3 -11.2336 3.74977 3.56791
2 -7.30405 3.66022 3.81417
3 -3.62556 3.49865 3.75377
2 -0.0642754 3.64231 3.73184
3 3.63479 3.72338 3.76858
3 7.36198 3.53426 3.80534
3 11.1002 3.63476 3.86059
1 14.9867 3.70513 3.81134
1 18.8588 3.83769 3.90197
2 22.527 3.96309 3.98671
2 -19.3088 7.76032 3.78242
1 -15.0635 7.66888 3.58368
2 -11.1876 7.47439 3.78472
3 -7.41432 7.38764 3.67202
3 -3.73389 7.39465 3.7678
1 -0.020491 7.35687 3.71712
2 3.67127 7.23572 3.63872
1 7.37878 7.44911 3.74061
2 11.1421 7.53854 3.86146
2 15.105 7.51043 3.87156
2 18.7666 7.43562 3.63882
2 -19.2091 11.5489 4.6533
2 -15.0233 11.3968 3.74398
3 -11.1529 11.3305 3.70631
2 -7.40248 11.2507 3.71372
3 -3.67859 11.2328 3.70036
3 0.0022295 11.2194 3.78715
3 3.76111 11.2292 3.71066
2 7.40295 11.076 3.79791
2 11.2536 11.2224 3.69594
2 14.9299 11.2899 3.62003
2 19.0629 11.2556 3.84439
1 -15.4014 15.4591 3.84414
1 -11.2163 15.0447 3.64402
1 -7.36663 15.1365 3.59838
3 -3.79507 15.0399 3.78611
2 0.0587382 14.9407 3.7934
3 3.64892 14.9244 3.85363
1 7.46028 14.9254 3.82315
2 11.1945 14.9464 3.76287
1 15.211 16.5919 4.69095
1 -11.4067 18.7816 3.89609
2 -7.41197 18.8723 3.74116
2 -3.7366 18.8056 3.69826
1 -0.0776203 18.8882 3.75054
1 3.68432 18.881 3.82801
1 7.41066 18.9029 3.78331
2 10.9935 19.0469 4.0815
1 -3.7507 22.6594 3.71141
2 0.568293 23.0358 2.84884
2 3.29397 23.0112 3.73987
2 -7.61073 -18.5479 7.71107
2 -4.08101 -18.9249 7.40731
3 -0.00733947 -19.1319 7.39781
1 3.8861 -19.1068 7.74936
2 7.80421 -19.5156 8.25803
1 11.5037 -18.5823 7.70349
1 -15.0736 -15.1094 8.21162
2 -11.3319 -14.9736 7.63158
2 -7.51511 -14.9538 7.32146
1 -3.66346 -15.1205 7.43786
1 0.0453136 -15.1518 7.50578
1 3.81688 -15.2198 7.64395
1 7.54265 -15.0994 7.66099
1 11.2589 -15.1483 7.65106
2 15.1901 -15.3157 8.00323
2 -18.3607 -11.4158 7.84287
1 -14.9806 -11.2187 7.40953
2 -11.4337 -11.3485 7.41799
3 -7.39102 -11.1667 7.42633
2 -3.87119 -11.2023 7.40213
1 0.107984 -11.3178 7.52733
3 3.64755 -11.2676 7.44353
3 7.42631 -11.1194 7.53687
3 11.1836 -11.3396 7.58421
2 15.1809 -11.2792 7.62324
2 18.538 -11.4588 8.0219
1 -19.1245 -7.84822 7.62242
2 -15.0592 -7.49481 7.3913
3 -11.2411 -7.40203 7.33242
3 -7.45456 -7.49876 7.45435
1 -3.70046 -7.38288 7.40758
3 -0.0287132 -7.45013 7.44497
3 3.74754 -7.52283 7.47665
2 7.39453 -7.58303 7.44965
2 11.2803 -7.5486 7.5123
2 15.2857 -7.51097 7.58337
1 19.3515 -7.93346 7.66984
3 -18.8425 -3.77624 7.61683
1 -15.0736 -3.54063 7.51752
2 -11.1972 -3.61218 7.39824
3 -7.48622 -3.6916 7.51246
2 -3.7912 -3.79216 7.42679
3 0.0197718 -3.71043 7.44302
2 3.63862 -3.67358 7.40683
3 7.34806 -3.72702 7.45161
3 11.2732 -3.77044 7.63962
2 14.972 -3.60515 7.5008
2 18.9193 -3.72726 7.77293
1 -18.9136 0.12645 7.53162
2 -15.0634 0.0840822 7.51435
3 -11.1412 -0.000770261 7.49355
3 -7.44434 -0.0735096 7.45126
3 -3.68859 -0.0976075 7.42829
3 0.0777983 -0.00623506 7.48246
3 3.63734 -0.011784 7.39024
3 7.41669 0.0580829 7.46187
3 11.2333 0.0110978 7.55097
2 14.8708 0.0280053 7.56253
1 18.902 -0.00717338 7.65327
1 -18.9304 3.94231 7.54778
2 -14.9623 3.80294 7.57404
1 -11.31 3.61078 7.59906
3 -7.4732 3.7648 7.39984
3 -3.6592 3.73976 7.34007
3 0.0157917 3.60338 7.34494
3 3.57716 3.55325 7.38146
3 7.36473 3.71701 7.42745
2 11.0713 3.65893 7.50137
1 14.9182 3.68142 7.59569
3 18.9296 3.80057 7.58507
1 -19.5525 7.97076 8.15277
1 -15.0819 7.66761 7.5685
2 -11.3053 7.50513 7.31737
2 -7.38905 7.47126 7.40699
1 -3.58378 7.44336 7.46146
1 0.0275563 7.33046 7.35108
2 3.65987 7.25563 7.45013
3 7.3418 7.41471 7.53902
2 11.1987 7.38846 7.53422
3 15.0996 7.40797 7.55526
1 18.9966 7.67383 7.73267
2 -18.4464 12.045 7.25866
2 -15.1094 11.3201 7.59468
3 -11.2103 11.4207 7.51409
1 -7.43899 11.3556 7.59209
1 -3.64972 11.2013 7.49621
1 0.00868795 11.3302 7.45988
3 3.66775 11.1703 7.59495
3 7.41796 11.2603 7.54037
1 11.1989 11.2955 7.54685
2 15.0501 11.3196 7.62208
1 -15.2609 15.55 8.34349
2 -11.3536 15.3248 7.62467
2 -7.51155 14.9983 7.61393
2 -3.70787 15.1239 7.56081
2 0.0208567 15.1731 7.61071
2 3.80101 14.9869 7.51403
1 7.61532 14.9133 7.571
2 11.3855 15.1649 7.76525
1 15.5311 15.7732 7.31396
2 -11.421 18.8145 8.51706
2 -7.43532 18.8439 7.52586
2 -3.79838 19.0024 7.67968
2 0.0993267 18.6667 7.587
2 3.46301 19.1408 7.46796
2 7.53929 18.8259 7.68722
2 11.3431 19.0432 7.36169
2 0.0624935 22.6436 7.48173
2 -3.72274 -18.8943 11.233
1 0.4149 -19.8158 11.2691
1 4.16614 -19.2706 11.2163
1 7.95431 -19.1944 11.4583
2 -11.6571 -15.0618 11.7384
2 -7.53534 -14.9974 11.273
3 -3.67261 -14.9623 11.205
1 -0.0083253 -15.2223 11.3488
1 3.81098 -15.0285 11.2396
2 7.58993 -15.3397 11.5897
2 11.376 -15.1848 11.3838
2 -14.92 -11.3437 11.4877
3 -11.289 -11.1365 11.1751
1 -7.44694 -11.245 11.1849
2 -3.7978 -11.1356 11.1896
2 -0.0118975 -11.2749 11.3023
2 3.68234 -11.366 11.3488
1 7.47193 -11.318 11.3352
1 11.4519 -11.363 11.4323
1 15.3012 -11.5686 11.9417
2 -18.6967 -7.69563 11.2781
2 -15.0167 -7.34517 11.1928
3 -11.2752 -7.40836 11.194
3 -7.40753 -7.33288 11.1596
3 -3.78733 -7.62985 11.0683
3 0.0514784 -7.48262 11.2216
2 3.6976 -7.43802 11.2973
1 7.48498 -7.48463 11.285
2 11.2399 -7.65679 11.3052
2 15.0147 -7.55946 11.3928
2 18.5399 -7.6186 11.2894
2 -19.3077 -4.31655 11.6477
1 -15.0893 -3.72269 11.2554
1 -11.3155 -3.64648 11.2793
2 -7.49054 -3.62121 11.2285
3 -3.7648 -3.76952 11.129
3 0.0574494 -3.80979 11.2691
2 3.63512 -3.76895 11.2267
3 7.3685 -3.7883 11.2324
1 11.1914 -3.72486 11.3237
3 15.0653 -3.76498 11.3941
1 18.9923 -5.15178 10.4023
1 -19.1309 -0.452509 11.7471
1 -15.1094 0.163549 11.3491
3 -11.2761 -0.0313646 11.3093
2 -7.48 -0.0468967 11.2592
3 -3.63945 -0.023965 11.1365
3 -0.0331386 0.00049074 11.241
1 3.66789 -0.0454523 11.1414
2 7.43168 -0.07579 11.2286
1 11.1799 -0.0777965 11.338
2 14.9322 -0.121981 11.4724
3 18.6904 0.0315708 11.273
2 -19.0496 3.93184 11.7067
2 -15.0948 3.94179 11.2166
2 -11.2377 3.65226 11.2855
3 -7.35462 3.64463 11.2967
3 -3.71755 3.65624 11.2287
2 -0.0490981 3.70858 11.245
2 3.76724 3.67283 11.2896
3 7.4214 3.69935 11.3084
3 11.0928 3.7314 11.3221
2 15.0145 3.70375 11.2048
2 18.9218 3.85708 11.528
2 -15.2322 7.61264 11.1367
3 -11.349 7.58207 11.257
2 -7.49115 7.62783 11.2915
3 -3.67501 7.46958 11.3449
3 0.135136 7.36231 11.2049
3 3.7644 7.38128 11.2291
1 7.4195 7.48675 11.1395
1 11.3304 7.52205 11.3989
1 15.065 7.40392 11.3936
2 19.107 8.0775 11.0568
2 -15.204 11.5298 11.2789
2 -11.2473 11.2525 11.4376
2 -7.37134 11.3216 11.4642
3 -3.6273 11.3038 11.4433
2 0.0148701 11.2407 11.416
3 3.71503 11.3226 11.2318
2 7.63806 11.3944 11.2725
2 11.4753 11.2346 11.3577
2 15.5246 11.9049 10.8351
2 -11.4242 15.1199 11.6044
1 -7.31797 15.2419 11.3516
1 -3.78808 15.2479 11.2068
2 0.103811 15.2103 11.3857
3 3.85983 15.0909 11.5246
1 7.59708 14.8355 11.2619
1 11.9452 15.4588 11.0726
1 -7.87559 18.8383 11.3166
1 -3.73058 18.9225 11.4454
2 0.0578227 18.7796 11.4247
1 4.00503 18.9173 11.4801
2 -8.27241 -15.2533 15.3242
1 -3.83428 -16.0705 15.6991
1 0.724011 -15.6731 15.4816
2 5.57174 -17.2275 14.7849
2 7.58014 -15.5156 14.8662
1 -11.3399 -11.0525 15.2447
2 -7.5391 -11.6814 14.9593
2 -3.82223 -11.3286 15.0839
2 0.0839408 -11.3774 15.0403
2 3.65603 -11.5336 15.2217
2 7.53564 -11.3989 15.1919
1 11.6481 -11.9522 15.2395
1 -15.3419 -7.56012 15.1279
1 -11.3255 -7.71063 14.9035
3 -7.46956 -7.54009 14.8258
3 -3.71506 -7.59813 14.9577
1 -0.0915907 -7.49153 14.9986
2 3.74164 -7.36629 15.0492
2 7.44992 -7.49258 15.1553
2 11.1992 -7.5314 15.2085
1 14.8987 -7.88462 15.4338
2 -15.7127 -5.07238 15.7375
2 -11.3673 -3.91435 14.837
2 -7.52066 -3.7616 14.7923
3 -3.78402 -3.84701 15.0092
2 -0.0738645 -3.76203 15.1619
2 3.60658 -3.73228 14.9399
2 7.39904 -3.89592 15.1029
2 11.1594 -3.78755 15.1168
1 15.0035 -3.9067 15.4854
2 -15.6444 -0.528479 15.7509
3 -11.2075 0.00593746 15.1895
3 -7.49299 0.0302268 14.9113
3 -3.70715 -0.0241222 15.0426
2 0.051896 -0.0938804 14.9905
3 3.82076 0.0141094 15.022
3 7.46004 -0.0599481 14.9857
2 11.2503 -0.0342674 15.0382
2 15.2394 -0.146802 15.4257
2 -15.3238 3.73672 15.4107
2 -11.337 3.82088 15.0722
2 -7.4763 3.72185 15.1571
2 -3.78204 3.70764 15.045
3 0.117037 3.55037 15.0196
1 3.79761 3.66545 14.996
3 7.38042 3.80424 15.0333
2 11.3107 3.62261 15.3404
1 15.5007 4.03858 15.5391
1 -15.3568 7.9751 15.4409
2 -11.1911 7.62577 15.0989
2 -7.48236 7.5491 15.1157
2 -3.69902 7.3871 15.2079
2 -0.0587225 7.44735 15.1149
1 3.71269 7.46294 15.088
2 7.5331 7.56434 15.142
2 11.5522 7.55886 15.2392
2 15.5983 8.32368 14.7421
1 -11.5596 11.4738 15.3816
2 -7.54425 11.383 15.0948
1 -3.68879 11.4862 15.4122
2 0.110827 11.3259 15.1974
3 3.75336 11.3483 15.1401
3 7.64614 11.2452 15.128
1 12.1207 11.936 14.8173
1 -7.63897 15.0985 15.4787
2 -3.73927 15.0289 15.3565
1 0.154105 16.1351 16.2954
2 4.07799 15.2007 15.3395
2 8.26947 15.2659 14.6661
2 -7.73475 -11.167 18.7658
2 -3.79246 -11.626 18.5386
1 0.121355 -11.7834 19.0577
1 4.38723 -12.3268 19.8741
2 -11.5922 -7.35245 18.8424
2 -7.78656 -9.02798 20.2348
2 -3.70122 -7.70285 18.7639
1 -0.0977733 -7.66461 18.7429
1 3.80259 -7.42865 19.0192
3 8.40561 -7.84183 18.9358
2 10.9888 -8.44843 19.0334
1 -11.6945 -4.87735 19.3466
3 -7.78503 -4.13978 18.8323
2 -3.78688 -3.9251 18.8659
2 -0.0521885 -3.85691 19.0447
2 3.66057 -3.64156 18.8262
2 7.97132 -3.58005 19.0704
2 12.0194 -4.29616 20.3916
1 -12.3458 -0.674908 19.8338
2 -7.53845 -0.134321 19.109
1 -3.94122 -0.0650029 18.9059
1 0.127743 -0.0276381 18.9577
2 3.81456 -0.222635 19.008
2 8.20328 -0.668404 19.2551
1 11.5445 0.0668283 19.1756
1 -11.6029 3.79196 19.2574
2 -7.5439 3.63861 18.8946
2 -3.77365 3.60168 18.8392
2 0.0210163 3.71986 18.9423
1 3.98219 3.72947 19.0534
3 7.54845 3.84314 18.9277
2 12.1067 4.35803 19.4934
2 -11.3563 7.55773 18.6717
2 -7.58916 7.55599 19.0986
1 -3.90162 7.46992 19.042
2 -0.187687 7.57325 18.9616
2 3.8809 7.48489 18.966
2 8.23958 8.44445 19.5977
2 11.9269 8.01473 18.4782
2 -7.78011 11.2379 18.8971
1 -3.91037 11.5797 19.6922
2 0.159228 11.4578 19.0884
1 4.52447 11.7223 19.5177
1 8.63479 11.5907 18.3813
1 -3.78704 -3.78926 22.3667
2 0.159073 -3.38716 23.0232
2 4.19053 -4.3035 22.4242
2 -3.74416 -0.195057 22.6487
2 -0.0628669 -0.135417 22.6958
2 3.93973 -0.208634 22.8204
1 7.87386 0.216605 22.7017
2 -3.88132 3.9663 22.9842
2 0.0399585 3.72808 22.7803
2 4.01669 3.72608 22.3722
3 -1.73096 -5.52231 -22.6656
2 1.86184 -5.58929 -22.7443
1 -5.5139 -1.88571 -22.4425
2 -1.94576 -1.51641 -22.9748
1 1.72506 -1.83173 -22.8074
2 5.87625 -2.15668 -22.6968
1 -5.61849 2.56788 -22.1827
2 -2.10835 1.7282 -22.7719
2 2.14048 1.57209 -22.8533
2 5.7211 1.30736 -23.1213
2 -1.77529 5.7366 -22.8203
2 -1.95118 -13.074 -18.6235
2 5.89956 -12.6662 -19.0796
2 -9.5728 -9.77586 -18.8043
2 -5.86146 -9.81557 -19.151
2 -1.98603 -10.3359 -18.834
2 1.94893 -9.72398 -18.9844
2 5.69938 -9.50223 -19.144
2 9.69493 -9.40376 -18.8813
2 -9.95145 -6.05199 -19.2965
2 -5.54229 -5.6795 -19.1641
1 -1.78553 -5.75985 -18.8112
2 1.74782 -5.65676 -18.7231
3 5.64556 -5.51621 -18.8565
1 9.45178 -5.73782 -19.3927
2 12.8064 -5.84402 -19.268
2 -13.279 -2.31647 -19.1729
2 -9.37608 -1.8268 -18.8463
2 -5.65634 -2.01529 -18.9269
1 -1.85594 -1.98829 -18.8605
2 1.82345 -2.00004 -18.8838
1 5.72205 -1.93168 -18.8191
2 9.61586 -2.10438 -18.958
2 12.9634 -2.21758 -18.8043
2 -13.0489 2.39395 -19.2211
1 -9.29539 1.80611 -18.8652
2 -5.70396 1.86755 -18.8673
1 -1.83249 1.85477 -18.9034
2 1.74973 1.69915 -19.0111
1 5.68525 1.64139 -18.9545
2 9.51427 1.87313 -19.2168
1 13.0863 2.21447 -18.7857
2 -9.82828 6.21404 -19.7456
2 -5.50641 5.67523 -18.8345
2 -1.84075 5.68392 -18.8247
2 2.05082 5.52367 -19.028
1 5.75957 5.48647 -18.972
2 10.2855 6.07777 -20.2122
2 12.5316 6.28264 -19.0425
2 -9.60845 9.01248 -18.9032
2 -5.7511 9.26554 -19.2112
2 -1.65805 9.64356 -19.0267
1 1.88157 9.45456 -18.963
1 5.86259 9.66747 -19.0689
2 9.1995 10.5288 -18.9459
1 -5.78595 12.8613 -19.1427
2 -1.81242 13.1527 -18.9111
2 2.08483 13.097 -18.8436
2 5.77026 13.636 -18.7764
2 -6.0809 -17.3629 -14.2321
2 -1.82075 -16.9029 -14.7909
2 2.31591 -16.8594 -14.9239
1 6.1889 -16.3104 -15.2948
2 -9.60655 -13.5079 -14.8754
1 -5.22043 -13.2084 -15.0761
2 -1.95413 -13.2404 -14.8638
1 1.77115 -13.3471 -15.1105