LAMMPS DATA FOR MEAM SIMULATION

    983   atoms
      2   atom types

  -24.14   24.14   xlo xhi
  -24.14   24.14   ylo yhi
  -24.14   24.14   zlo zhi

 Atoms

     1   2    -3.93151    -3.93151   -11.79454
     2   2     0.00000    -3.93151   -11.79454
     3   2     3.93151    -3.93151   -11.79454
     4   2    -3.93151     0.00000   -11.79454
     5   2     0.00000     0.00000   -11.79454
     6   2     3.93151     0.00000   -11.79454
     7   2    -3.93151     3.93151   -11.79454
     8   2     0.00000     3.93151   -11.79454
     9   2     3.93151     3.93151   -11.79454
    10   2    -7.86303    -7.86303    -7.86303
    11   2    -3.93151    -7.86303    -7.86303
    12   2     0.00000    -7.86303    -7.86303
    13   2     3.93151    -7.86303    -7.86303
    14   2     7.86303    -7.86303    -7.86303
    15   2    -7.86303    -3.93151    -7.86303
    16   2    -3.93151    -3.93151    -7.86303
    17   2     0.00000    -3.93151    -7.86303
    18   2     3.93151    -3.93151    -7.86303
    19   2     7.86303    -3.93151    -7.86303
    20   2    -7.86303     0.00000    -7.86303
    21   2    -3.93151     0.00000    -7.86303
    22   2     0.00000     0.00000    -7.86303
    23   2     3.93151     0.00000    -7.86303
    24   2     7.86303     0.00000    -7.86303
    25   2    -7.86303     3.93151    -7.86303
    26   2    -3.93151     3.93151    -7.86303
    27   2     0.00000     3.93151    -7.86303
    28   2     3.93151     3.93151    -7.86303
    29   2     7.86303     3.93151    -7.86303
    30   2    -7.86303     7.86303    -7.86303
    31   2    -3.93151     7.86303    -7.86303
    32   2     0.00000     7.86303    -7.86303
    33   2     3.93151     7.86303    -7.86303
    34   2     7.86303     7.86303    -7.86303
    35   2    -3.93151   -11.79454    -3.93151
    36   2     0.00000   -11.79454    -3.93151
    37   2     3.93151   -11.79454    -3.93151
    38   2    -7.86303    -7.86303    -3.93151
    39   2    -3.93151    -7.86303    -3.93151
    40   2     0.00000    -7.86303    -3.93151
    41   2     3.93151    -7.86303    -3.93151
    42   2     7.86303    -7.86303    -3.93151
    43   2   -11.79454    -3.93151    -3.93151
    44   2    -7.86303    -3.93151    -3.93151
    45   2    -3.93151    -3.93151    -3.93151
    46   2     0.00000    -3.93151    -3.93151
    47   2     3.93151    -3.93151    -3.93151
    48   2     7.86303    -3.93151    -3.93151
    49   2    11.79454    -3.93151    -3.93151
    50   2   -11.79454     0.00000    -3.93151
    51   2    -7.86303     0.00000    -3.93151
    52   2    -3.93151     0.00000    -3.93151
    53   2     0.00000     0.00000    -3.93151
    54   2     3.93151     0.00000    -3.93151
    55   2     7.86303     0.00000    -3.93151
    56   2    11.79454     0.00000    -3.93151
    57   2   -11.79454     3.93151    -3.93151
    58   2    -7.86303     3.93151    -3.93151
    59   2    -3.93151     3.93151    -3.93151
    60   2     0.00000     3.93151    -3.93151
    61   2     3.93151     3.93151    -3.93151
    62   2     7.86303     3.93151    -3.93151
    63   2    11.79454     3.93151    -3.93151
    64   2    -7.86303     7.86303    -3.93151
    65   2    -3.93151     7.86303    -3.93151
    66   2     0.00000     7.86303    -3.93151
    67   2     3.93151     7.86303    -3.93151
    68   2     7.86303     7.86303    -3.93151
    69   2    -3.93151    11.79454    -3.93151
    70   2     0.00000    11.79454    -3.93151
    71   2     3.93151    11.79454    -3.93151
    72   2    -3.93151   -11.79454     0.00000
    73   2     0.00000   -11.79454     0.00000
    74   2     3.93151   -11.79454     0.00000
    75   2    -7.86303    -7.86303     0.00000
    76   2    -3.93151    -7.86303     0.00000
    77   2     0.00000    -7.86303     0.00000
    78   2     3.93151    -7.86303     0.00000
    79   2     7.86303    -7.86303     0.00000
    80   2   -11.79454    -3.93151     0.00000
    81   2    -7.86303    -3.93151     0.00000
    82   2    -3.93151    -3.93151     0.00000
    83   2     0.00000    -3.93151     0.00000
    84   2     3.93151    -3.93151     0.00000
    85   2     7.86303    -3.93151     0.00000
    86   2    11.79454    -3.93151     0.00000
    87   2   -11.79454     0.00000     0.00000
    88   2    -7.86303     0.00000     0.00000
    89   2    -3.93151     0.00000     0.00000
    90   2     0.00000     0.00000     0.00000
    91   2     3.93151     0.00000     0.00000
    92   2     7.86303     0.00000     0.00000
    93   2    11.79454     0.00000     0.00000
    94   2   -11.79454     3.93151     0.00000
    95   2    -7.86303     3.93151     0.00000
    96   2    -3.93151     3.93151     0.00000
    97   2     0.00000     3.93151     0.00000
    98   2     3.93151     3.93151     0.00000
    99   2     7.86303     3.93151     0.00000
   100   2    11.79454     3.93151     0.00000
   101   2    -7.86303     7.86303     0.00000
   102   2    -3.93151     7.86303     0.00000
   103   2     0.00000     7.86303     0.00000
   104   2     3.93151     7.86303     0.00000
   105   2     7.86303     7.86303     0.00000
   106   2    -3.93151    11.79454     0.00000
   107   2     0.00000    11.79454     0.00000
   108   2     3.93151    11.79454     0.00000
   109   2    -3.93151   -11.79454     3.93151
   110   2     0.00000   -11.79454     3.93151
   111   2     3.93151   -11.79454     3.93151
   112   2    -7.86303    -7.86303     3.93151
   113   2    -3.93151    -7.86303     3.93151
   114   2     0.00000    -7.86303     3.93151
   115   2     3.93151    -7.86303     3.93151
   116   2     7.86303    -7.86303     3.93151
   117   2   -11.79454    -3.93151     3.93151
   118   2    -7.86303    -3.93151     3.93151
   119   2    -3.93151    -3.93151     3.93151
   120   2     0.00000    -3.93151     3.93151
   121   2     3.93151    -3.93151     3.93151
   122   2     7.86303    -3.93151     3.93151
   123   2    11.79454    -3.93151     3.93151
   124   2   -11.79454     0.00000     3.93151
   125   2    -7.86303     0.00000     3.93151
   126   2    -3.93151     0.00000     3.93151
   127   2     0.00000     0.00000     3.93151
   128   2     3.93151     0.00000     3.93151
   129   2     7.86303     0.00000     3.93151
   130   2    11.79454     0.00000     3.93151
   131   2   -11.79454     3.93151     3.93151
   132   2    -7.86303     3.93151     3.93151
   133   2    -3.93151     3.93151     3.93151
   134   2     0.00000     3.93151     3.93151
   135   2     3.93151     3.93151     3.93151
   136   2     7.86303     3.93151     3.93151
   137   2    11.79454     3.93151     3.93151
   138   2    -7.86303     7.86303     3.93151
   139   2    -3.93151     7.86303     3.93151
   140   2     0.00000     7.86303     3.93151
   141   2     3.93151     7.86303     3.93151
   142   2     7.86303     7.86303     3.93151
   143   2    -3.93151    11.79454     3.93151
   144   2     0.00000    11.79454     3.93151
   145   2     3.93151    11.79454     3.93151
   146   2    -7.86303    -7.86303     7.86303
   147   2    -3.93151    -7.86303     7.86303
   148   2     0.00000    -7.86303     7.86303
   149   2     3.93151    -7.86303     7.86303
   150   2     7.86303    -7.86303     7.86303
   151   2    -7.86303    -3.93151     7.86303
   152   2    -3.93151    -3.93151     7.86303
   153   2     0.00000    -3.93151     7.86303
   154   2     3.93151    -3.93151     7.86303
   155   2     7.86303    -3.93151     7.86303
   156   2    -7.86303     0.00000     7.86303
   157   2    -3.93151     0.00000     7.86303
   158   2     0.00000     0.00000     7.86303
   159   2     3.93151     0.00000     7.86303
   160   2     7.86303     0.00000     7.86303
   161   2    -7.86303     3.93151     7.86303
   162   2    -3.93151     3.93151     7.86303
   163   2     0.00000     3.93151     7.86303
   164   2     3.93151     3.93151     7.86303
   165   2     7.86303     3.93151     7.86303
   166   2    -7.86303     7.86303     7.86303
   167   2    -3.93151     7.86303     7.86303
   168   2     0.00000     7.86303     7.86303
   169   2     3.93151     7.86303     7.86303
   170   2     7.86303     7.86303     7.86303
   171   2    -3.93151    -3.93151    11.79454
   172   2     0.00000    -3.93151    11.79454
   173   2     3.93151    -3.93151    11.79454
   174   2    -3.93151     0.00000    11.79454
   175   2     0.00000     0.00000    11.79454
   176   2     3.93151     0.00000    11.79454
   177   2    -3.93151     3.93151    11.79454
   178   2     0.00000     3.93151    11.79454
   179   2     3.93151     3.93151    11.79454
   180   2    -1.96576    -5.89727   -11.79454
   181   2     1.96576    -5.89727   -11.79454
   182   2    -5.89727    -1.96576   -11.79454
   183   2    -1.96576    -1.96576   -11.79454
   184   2     1.96576    -1.96576   -11.79454
   185   2     5.89727    -1.96576   -11.79454
   186   2    -5.89727     1.96576   -11.79454
   187   2    -1.96576     1.96576   -11.79454
   188   2     1.96576     1.96576   -11.79454
   189   2     5.89727     1.96576   -11.79454
   190   2    -1.96576     5.89727   -11.79454
   191   2     1.96576     5.89727   -11.79454
   192   2    -5.89727    -9.82878    -7.86303
   193   2    -1.96576    -9.82878    -7.86303
   194   2     1.96576    -9.82878    -7.86303
   195   2     5.89727    -9.82878    -7.86303
   196   2    -9.82878    -5.89727    -7.86303
   197   2    -5.89727    -5.89727    -7.86303
   198   2    -1.96576    -5.89727    -7.86303
   199   2     1.96576    -5.89727    -7.86303
   200   2     5.89727    -5.89727    -7.86303
   201   2     9.82878    -5.89727    -7.86303
   202   2    -9.82878    -1.96576    -7.86303
   203   2    -5.89727    -1.96576    -7.86303
   204   2    -1.96576    -1.96576    -7.86303
   205   2     1.96576    -1.96576    -7.86303
   206   2     5.89727    -1.96576    -7.86303
   207   2     9.82878    -1.96576    -7.86303
   208   2    -9.82878     1.96576    -7.86303
   209   2    -5.89727     1.96576    -7.86303
   210   2    -1.96576     1.96576    -7.86303
   211   2     1.96576     1.96576    -7.86303
   212   2     5.89727     1.96576    -7.86303
   213   2     9.82878     1.96576    -7.86303
   214   2    -9.82878     5.89727    -7.86303
   215   2    -5.89727     5.89727    -7.86303
   216   2    -1.96576     5.89727    -7.86303
   217   2     1.96576     5.89727    -7.86303
   218   2     5.89727     5.89727    -7.86303
   219   2     9.82878     5.89727    -7.86303
   220   2    -5.89727     9.82878    -7.86303
   221   2    -1.96576     9.82878    -7.86303
   222   2     1.96576     9.82878    -7.86303
   223   2     5.89727     9.82878    -7.86303
   224   2    -5.89727    -9.82878    -3.93151
   225   2    -1.96576    -9.82878    -3.93151
   226   2     1.96576    -9.82878    -3.93151
   227   2     5.89727    -9.82878    -3.93151
   228   2    -9.82878    -5.89727    -3.93151
   229   2    -5.89727    -5.89727    -3.93151
   230   2    -1.96576    -5.89727    -3.93151
   231   2     1.96576    -5.89727    -3.93151
   232   2     5.89727    -5.89727    -3.93151
   233   2     9.82878    -5.89727    -3.93151
   234   2    -9.82878    -1.96576    -3.93151
   235   2    -5.89727    -1.96576    -3.93151
   236   2    -1.96576    -1.96576    -3.93151
   237   2     1.96576    -1.96576    -3.93151
   238   2     5.89727    -1.96576    -3.93151
   239   2     9.82878    -1.96576    -3.93151
   240   2    -9.82878     1.96576    -3.93151
   241   2    -5.89727     1.96576    -3.93151
   242   2    -1.96576     1.96576    -3.93151
   243   2     1.96576     1.96576    -3.93151
   244   2     5.89727     1.96576    -3.93151
   245   2     9.82878     1.96576    -3.93151
   246   2    -9.82878     5.89727    -3.93151
   247   2    -5.89727     5.89727    -3.93151
   248   2    -1.96576     5.89727    -3.93151
   249   2     1.96576     5.89727    -3.93151
   250   2     5.89727     5.89727    -3.93151
   251   2     9.82878     5.89727    -3.93151
   252   2    -5.89727     9.82878    -3.93151
   253   2    -1.96576     9.82878    -3.93151
   254   2     1.96576     9.82878    -3.93151
   255   2     5.89727     9.82878    -3.93151
   256   2    -1.96576   -13.76030     0.00000
   257   2     1.96576   -13.76030     0.00000
   258   2    -9.82878    -9.82878     0.00000
   259   2    -5.89727    -9.82878     0.00000
   260   2    -1.96576    -9.82878     0.00000
   261   2     1.96576    -9.82878     0.00000
   262   2     5.89727    -9.82878     0.00000
   263   2     9.82878    -9.82878     0.00000
   264   2    -9.82878    -5.89727     0.00000
   265   2    -5.89727    -5.89727     0.00000
   266   2    -1.96576    -5.89727     0.00000
   267   2     1.96576    -5.89727     0.00000
   268   2     5.89727    -5.89727     0.00000
   269   2     9.82878    -5.89727     0.00000
   270   2   -13.76030    -1.96576     0.00000
   271   2    -9.82878    -1.96576     0.00000
   272   2    -5.89727    -1.96576     0.00000
   273   2    -1.96576    -1.96576     0.00000
   274   2     1.96576    -1.96576     0.00000
   275   2     5.89727    -1.96576     0.00000
   276   2     9.82878    -1.96576     0.00000
   277   2    13.76030    -1.96576     0.00000
   278   2   -13.76030     1.96576     0.00000
   279   2    -9.82878     1.96576     0.00000
   280   2    -5.89727     1.96576     0.00000
   281   2    -1.96576     1.96576     0.00000
   282   2     1.96576     1.96576     0.00000
   283   2     5.89727     1.96576     0.00000
   284   2     9.82878     1.96576     0.00000
   285   2    13.76030     1.96576     0.00000
   286   2    -9.82878     5.89727     0.00000
   287   2    -5.89727     5.89727     0.00000
   288   2    -1.96576     5.89727     0.00000
   289   2     1.96576     5.89727     0.00000
   290   2     5.89727     5.89727     0.00000
   291   2     9.82878     5.89727     0.00000
   292   2    -9.82878     9.82878     0.00000
   293   2    -5.89727     9.82878     0.00000
   294   2    -1.96576     9.82878     0.00000
   295   2     1.96576     9.82878     0.00000
   296   2     5.89727     9.82878     0.00000
   297   2     9.82878     9.82878     0.00000
   298   2    -1.96576    13.76030     0.00000
   299   2     1.96576    13.76030     0.00000
   300   2    -5.89727    -9.82878     3.93151
   301   2    -1.96576    -9.82878     3.93151
   302   2     1.96576    -9.82878     3.93151
   303   2     5.89727    -9.82878     3.93151
   304   2    -9.82878    -5.89727     3.93151
   305   2    -5.89727    -5.89727     3.93151
   306   2    -1.96576    -5.89727     3.93151
   307   2     1.96576    -5.89727     3.93151
   308   2     5.89727    -5.89727     3.93151
   309   2     9.82878    -5.89727     3.93151
   310   2    -9.82878    -1.96576     3.93151
   311   2    -5.89727    -1.96576     3.93151
   312   2    -1.96576    -1.96576     3.93151
   313   2     1.96576    -1.96576     3.93151
   314   2     5.89727    -1.96576     3.93151
   315   2     9.82878    -1.96576     3.93151
   316   2    -9.82878     1.96576     3.93151
   317   2    -5.89727     1.96576     3.93151
   318   2    -1.96576     1.96576     3.93151
   319   2     1.96576     1.96576     3.93151
   320   2     5.89727     1.96576     3.93151
   321   2     9.82878     1.96576     3.93151
   322   2    -9.82878     5.89727     3.93151
   323   2    -5.89727     5.89727     3.93151
   324   2    -1.96576     5.89727     3.93151
   325   2     1.96576     5.89727     3.93151
   326   2     5.89727     5.89727     3.93151
   327   2     9.82878     5.89727     3.93151
   328   2    -5.89727     9.82878     3.93151
   329   2    -1.96576     9.82878     3.93151
   330   2     1.96576     9.82878     3.93151
   331   2     5.89727     9.82878     3.93151
   332   2    -5.89727    -9.82878     7.86303
   333   2    -1.96576    -9.82878     7.86303
   334   2     1.96576    -9.82878     7.86303
   335   2     5.89727    -9.82878     7.86303
   336   2    -9.82878    -5.89727     7.86303
   337   2    -5.89727    -5.89727     7.86303
   338   2    -1.96576    -5.89727     7.86303
   339   2     1.96576    -5.89727     7.86303
   340   2     5.89727    -5.89727     7.86303
   341   2     9.82878    -5.89727     7.86303
   342   2    -9.82878    -1.96576     7.86303
   343   2    -5.89727    -1.96576     7.86303
   344   2    -1.96576    -1.96576     7.86303
   345   2     1.96576    -1.96576     7.86303
   346   2     5.89727    -1.96576     7.86303
   347   2     9.82878    -1.96576     7.86303
   348   2    -9.82878     1.96576     7.86303
   349   2    -5.89727     1.96576     7.86303
   350   2    -1.96576     1.96576     7.86303
   351   2     1.96576     1.96576     7.86303
   352   2     5.89727     1.96576     7.86303
   353   2     9.82878     1.96576     7.86303
   354   2    -9.82878     5.89727     7.86303
   355   2    -5.89727     5.89727     7.86303
   356   2    -1.96576     5.89727     7.86303
   357   2     1.96576     5.89727     7.86303
   358   2     5.89727     5.89727     7.86303
   359   2     9.82878     5.89727     7.86303
   360   2    -5.89727     9.82878     7.86303
   361   2    -1.96576     9.82878     7.86303
   362   2     1.96576     9.82878     7.86303
   363   2     5.89727     9.82878     7.86303
   364   2    -1.96576    -5.89727    11.79454
   365   2     1.96576    -5.89727    11.79454
   366   2    -5.89727    -1.96576    11.79454
   367   2    -1.96576    -1.96576    11.79454
   368   2     1.96576    -1.96576    11.79454
   369   2     5.89727    -1.96576    11.79454
   370   2    -5.89727     1.96576    11.79454
   371   2    -1.96576     1.96576    11.79454
   372   2     1.96576     1.96576    11.79454
   373   2     5.89727     1.96576    11.79454
   374   2    -1.96576     5.89727    11.79454
   375   2     1.96576     5.89727    11.79454
   376   2    -1.96576   -11.79454    -5.89727
   377   2     1.96576   -11.79454    -5.89727
   378   2    -5.89727   -11.79454    -1.96576
   379   2    -1.96576   -11.79454    -1.96576
   380   2     1.96576   -11.79454    -1.96576
   381   2     5.89727   -11.79454    -1.96576
   382   2    -5.89727   -11.79454     1.96576
   383   2    -1.96576   -11.79454     1.96576
   384   2     1.96576   -11.79454     1.96576
   385   2     5.89727   -11.79454     1.96576
   386   2    -1.96576   -11.79454     5.89727
   387   2     1.96576   -11.79454     5.89727
   388   2    -5.89727    -7.86303    -9.82878
   389   2    -1.96576    -7.86303    -9.82878
   390   2     1.96576    -7.86303    -9.82878
   391   2     5.89727    -7.86303    -9.82878
   392   2    -9.82878    -7.86303    -5.89727
   393   2    -5.89727    -7.86303    -5.89727
   394   2    -1.96576    -7.86303    -5.89727
   395   2     1.96576    -7.86303    -5.89727
   396   2     5.89727    -7.86303    -5.89727
   397   2     9.82878    -7.86303    -5.89727
   398   2    -9.82878    -7.86303    -1.96576
   399   2    -5.89727    -7.86303    -1.96576
   400   2    -1.96576    -7.86303    -1.96576
   401   2     1.96576    -7.86303    -1.96576
   402   2     5.89727    -7.86303    -1.96576
   403   2     9.82878    -7.86303    -1.96576
   404   2    -9.82878    -7.86303     1.96576
   405   2    -5.89727    -7.86303     1.96576
   406   2    -1.96576    -7.86303     1.96576
   407   2     1.96576    -7.86303     1.96576
   408   2     5.89727    -7.86303     1.96576
   409   2     9.82878    -7.86303     1.96576
   410   2    -9.82878    -7.86303     5.89727
   411   2    -5.89727    -7.86303     5.89727
   412   2    -1.96576    -7.86303     5.89727
   413   2     1.96576    -7.86303     5.89727
   414   2     5.89727    -7.86303     5.89727
   415   2     9.82878    -7.86303     5.89727
   416   2    -5.89727    -7.86303     9.82878
   417   2    -1.96576    -7.86303     9.82878
   418   2     1.96576    -7.86303     9.82878
   419   2     5.89727    -7.86303     9.82878
   420   2    -5.89727    -3.93151    -9.82878
   421   2    -1.96576    -3.93151    -9.82878
   422   2     1.96576    -3.93151    -9.82878
   423   2     5.89727    -3.93151    -9.82878
   424   2    -9.82878    -3.93151    -5.89727
   425   2    -5.89727    -3.93151    -5.89727
   426   2    -1.96576    -3.93151    -5.89727
   427   2     1.96576    -3.93151    -5.89727
   428   2     5.89727    -3.93151    -5.89727
   429   2     9.82878    -3.93151    -5.89727
   430   2    -9.82878    -3.93151    -1.96576
   431   2    -5.89727    -3.93151    -1.96576
   432   2    -1.96576    -3.93151    -1.96576
   433   2     1.96576    -3.93151    -1.96576
   434   2     5.89727    -3.93151    -1.96576
   435   2     9.82878    -3.93151    -1.96576
   436   2    -9.82878    -3.93151     1.96576
   437   2    -5.89727    -3.93151     1.96576
   438   2    -1.96576    -3.93151     1.96576
   439   2     1.96576    -3.93151     1.96576
   440   2     5.89727    -3.93151     1.96576
   441   2     9.82878    -3.93151     1.96576
   442   2    -9.82878    -3.93151     5.89727
   443   2    -5.89727    -3.93151     5.89727
   444   2    -1.96576    -3.93151     5.89727
   445   2     1.96576    -3.93151     5.89727
   446   2     5.89727    -3.93151     5.89727
   447   2     9.82878    -3.93151     5.89727
   448   2    -5.89727    -3.93151     9.82878
   449   2    -1.96576    -3.93151     9.82878
   450   2     1.96576    -3.93151     9.82878
   451   2     5.89727    -3.93151     9.82878
   452   2    -1.96576     0.00000   -13.76030
   453   2     1.96576     0.00000   -13.76030
   454   2    -9.82878     0.00000    -9.82878
   455   2    -5.89727     0.00000    -9.82878
   456   2    -1.96576     0.00000    -9.82878
   457   2     1.96576     0.00000    -9.82878
   458   2     5.89727     0.00000    -9.82878
   459   2     9.82878     0.00000    -9.82878
   460   2    -9.82878     0.00000    -5.89727
   461   2    -5.89727     0.00000    -5.89727
   462   2    -1.96576     0.00000    -5.89727
   463   2     1.96576     0.00000    -5.89727
   464   2     5.89727     0.00000    -5.89727
   465   2     9.82878     0.00000    -5.89727
   466   2   -13.76030     0.00000    -1.96576
   467   2    -9.82878     0.00000    -1.96576
   468   2    -5.89727     0.00000    -1.96576
   469   2    -1.96576     0.00000    -1.96576
   470   2     1.96576     0.00000    -1.96576
   471   2     5.89727     0.00000    -1.96576
   472   2     9.82878     0.00000    -1.96576
   473   2    13.76030     0.00000    -1.96576
   474   2   -13.76030     0.00000     1.96576
   475   2    -9.82878     0.00000     1.96576
   476   2    -5.89727     0.00000     1.96576
   477   2    -1.96576     0.00000     1.96576
   478   2     1.96576     0.00000     1.96576
   479   2     5.89727     0.00000     1.96576
   480   2     9.82878     0.00000     1.96576
   481   2    13.76030     0.00000     1.96576
   482   2    -9.82878     0.00000     5.89727
   483   2    -5.89727     0.00000     5.89727
   484   2    -1.96576     0.00000     5.89727
   485   2     1.96576     0.00000     5.89727
   486   2     5.89727     0.00000     5.89727
   487   2     9.82878     0.00000     5.89727
   488   2    -9.82878     0.00000     9.82878
   489   2    -5.89727     0.00000     9.82878
   490   2    -1.96576     0.00000     9.82878
   491   2     1.96576     0.00000     9.82878
   492   2     5.89727     0.00000     9.82878
   493   2     9.82878     0.00000     9.82878
   494   2    -1.96576     0.00000    13.76030
   495   2     1.96576     0.00000    13.76030
   496   2    -5.89727     3.93151    -9.82878
   497   2    -1.96576     3.93151    -9.82878
   498   2     1.96576     3.93151    -9.82878
   499   2     5.89727     3.93151    -9.82878
   500   2    -9.82878     3.93151    -5.89727
   501   2    -5.89727     3.93151    -5.89727
   502   2    -1.96576     3.93151    -5.89727
   503   2     1.96576     3.93151    -5.89727
   504   2     5.89727     3.93151    -5.89727
   505   2     9.82878     3.93151    -5.89727
   506   2    -9.82878     3.93151    -1.96576
   507   2    -5.89727     3.93151    -1.96576
   508   2    -1.96576     3.93151    -1.96576
   509   2     1.96576     3.93151    -1.96576
   510   2     5.89727     3.93151    -1.96576
   511   2     9.82878     3.93151    -1.96576
   512   2    -9.82878     3.93151     1.96576
   513   2    -5.89727     3.93151     1.96576
   514   2    -1.96576     3.93151     1.96576
   515   2     1.96576     3.93151     1.96576
   516   2     5.89727     3.93151     1.96576
   517   2     9.82878     3.93151     1.96576
   518   2    -9.82878     3.93151     5.89727
   519   2    -5.89727     3.93151     5.89727
   520   2    -1.96576     3.93151     5.89727
   521   2     1.96576     3.93151     5.89727
   522   2     5.89727     3.93151     5.89727
   523   2     9.82878     3.93151     5.89727
   524   2    -5.89727     3.93151     9.82878
   525   2    -1.96576     3.93151     9.82878
   526   2     1.96576     3.93151     9.82878
   527   2     5.89727     3.93151     9.82878
   528   2    -5.89727     7.86303    -9.82878
   529   2    -1.96576     7.86303    -9.82878
   530   2     1.96576     7.86303    -9.82878
   531   2     5.89727     7.86303    -9.82878
   532   2    -9.82878     7.86303    -5.89727
   533   2    -5.89727     7.86303    -5.89727
   534   2    -1.96576     7.86303    -5.89727
   535   2     1.96576     7.86303    -5.89727
   536   2     5.89727     7.86303    -5.89727
   537   2     9.82878     7.86303    -5.89727
   538   2    -9.82878     7.86303    -1.96576
   539   2    -5.89727     7.86303    -1.96576
   540   2    -1.96576     7.86303    -1.96576
   541   2     1.96576     7.86303    -1.96576
   542   2     5.89727     7.86303    -1.96576
   543   2     9.82878     7.86303    -1.96576
   544   2    -9.82878     7.86303     1.96576
   545   2    -5.89727     7.86303     1.96576
   546   2    -1.96576     7.86303     1.96576
   547   2     1.96576     7.86303     1.96576
   548   2     5.89727     7.86303     1.96576
   549   2     9.82878     7.86303     1.96576
   550   2    -9.82878     7.86303     5.89727
   551   2    -5.89727     7.86303     5.89727
   552   2    -1.96576     7.86303     5.89727
   553   2     1.96576     7.86303     5.89727
   554   2     5.89727     7.86303     5.89727
   555   2     9.82878     7.86303     5.89727
   556   2    -5.89727     7.86303     9.82878
   557   2    -1.96576     7.86303     9.82878
   558   2     1.96576     7.86303     9.82878
   559   2     5.89727     7.86303     9.82878
   560   2    -1.96576    11.79454    -5.89727
   561   2     1.96576    11.79454    -5.89727
   562   2    -5.89727    11.79454    -1.96576
   563   2    -1.96576    11.79454    -1.96576
   564   2     1.96576    11.79454    -1.96576
   565   2     5.89727    11.79454    -1.96576
   566   2    -5.89727    11.79454     1.96576
   567   2    -1.96576    11.79454     1.96576
   568   2     1.96576    11.79454     1.96576
   569   2     5.89727    11.79454     1.96576
   570   2    -1.96576    11.79454     5.89727
   571   2     1.96576    11.79454     5.89727
   572   2   -11.79454    -1.96576    -5.89727
   573   2   -11.79454     1.96576    -5.89727
   574   2   -11.79454    -5.89727    -1.96576
   575   2   -11.79454    -1.96576    -1.96576
   576   2   -11.79454     1.96576    -1.96576
   577   2   -11.79454     5.89727    -1.96576
   578   2   -11.79454    -5.89727     1.96576
   579   2   -11.79454    -1.96576     1.96576
   580   2   -11.79454     1.96576     1.96576
   581   2   -11.79454     5.89727     1.96576
   582   2   -11.79454    -1.96576     5.89727
   583   2   -11.79454     1.96576     5.89727
   584   2    -7.86303    -5.89727    -9.82878
   585   2    -7.86303    -1.96576    -9.82878
   586   2    -7.86303     1.96576    -9.82878
   587   2    -7.86303     5.89727    -9.82878
   588   2    -7.86303    -9.82878    -5.89727
   589   2    -7.86303    -5.89727    -5.89727
   590   2    -7.86303    -1.96576    -5.89727
   591   2    -7.86303     1.96576    -5.89727
   592   2    -7.86303     5.89727    -5.89727
   593   2    -7.86303     9.82878    -5.89727
   594   2    -7.86303    -9.82878    -1.96576
   595   2    -7.86303    -5.89727    -1.96576
   596   2    -7.86303    -1.96576    -1.96576
   597   2    -7.86303     1.96576    -1.96576
   598   2    -7.86303     5.89727    -1.96576
   599   2    -7.86303     9.82878    -1.96576
   600   2    -7.86303    -9.82878     1.96576
   601   2    -7.86303    -5.89727     1.96576
   602   2    -7.86303    -1.96576     1.96576
   603   2    -7.86303     1.96576     1.96576
   604   2    -7.86303     5.89727     1.96576
   605   2    -7.86303     9.82878     1.96576
   606   2    -7.86303    -9.82878     5.89727
   607   2    -7.86303    -5.89727     5.89727
   608   2    -7.86303    -1.96576     5.89727
   609   2    -7.86303     1.96576     5.89727
   610   2    -7.86303     5.89727     5.89727
   611   2    -7.86303     9.82878     5.89727
   612   2    -7.86303    -5.89727     9.82878
   613   2    -7.86303    -1.96576     9.82878
   614   2    -7.86303     1.96576     9.82878
   615   2    -7.86303     5.89727     9.82878
   616   2    -3.93151    -5.89727    -9.82878
   617   2    -3.93151    -1.96576    -9.82878
   618   2    -3.93151     1.96576    -9.82878
   619   2    -3.93151     5.89727    -9.82878
   620   2    -3.93151    -9.82878    -5.89727
   621   2    -3.93151    -5.89727    -5.89727
   622   2    -3.93151    -1.96576    -5.89727
   623   2    -3.93151     1.96576    -5.89727
   624   2    -3.93151     5.89727    -5.89727
   625   2    -3.93151     9.82878    -5.89727
   626   2    -3.93151    -9.82878    -1.96576
   627   2    -3.93151    -5.89727    -1.96576
   628   2    -3.93151    -1.96576    -1.96576
   629   2    -3.93151     1.96576    -1.96576
   630   2    -3.93151     5.89727    -1.96576
   631   2    -3.93151     9.82878    -1.96576
   632   2    -3.93151    -9.82878     1.96576
   633   2    -3.93151    -5.89727     1.96576
   634   2    -3.93151    -1.96576     1.96576