959
 Atoms. Timestep: 0
2 -3.93151 -7.86303 -11.7945
2 0 -7.86303 -11.7945
2 3.93151 -7.86303 -11.7945
2 -7.86303 -3.93151 -11.7945
2 -3.93151 -3.93151 -11.7945
2 0 -3.93151 -11.7945
2 3.93151 -3.93151 -11.7945
2 7.86303 -3.93151 -11.7945
2 -7.86303 0 -11.7945
2 -3.93151 0 -11.7945
2 0 0 -11.7945
2 3.93151 0 -11.7945
2 7.86303 0 -11.7945
2 -7.86303 3.93151 -11.7945
2 -3.93151 3.93151 -11.7945
2 0 3.93151 -11.7945
2 3.93151 3.93151 -11.7945
2 7.86303 3.93151 -11.7945
2 -3.93151 7.86303 -11.7945
2 0 7.86303 -11.7945
2 3.93151 7.86303 -11.7945
2 -3.93151 -11.7945 -7.86303
2 0 -11.7945 -7.86303
2 3.93151 -11.7945 -7.86303
2 -7.86303 -7.86303 -7.86303
2 -3.93151 -7.86303 -7.86303
2 0 -7.86303 -7.86303
2 3.93151 -7.86303 -7.86303
2 7.86303 -7.86303 -7.86303
2 -11.7945 -3.93151 -7.86303
2 -7.86303 -3.93151 -7.86303
2 -3.93151 -3.93151 -7.86303
2 0 -3.93151 -7.86303
2 3.93151 -3.93151 -7.86303
2 7.86303 -3.93151 -7.86303
2 11.7945 -3.93151 -7.86303
2 -11.7945 0 -7.86303
2 -7.86303 0 -7.86303
2 -3.93151 0 -7.86303
2 0 0 -7.86303
2 3.93151 0 -7.86303
2 7.86303 0 -7.86303
2 11.7945 0 -7.86303
2 -11.7945 3.93151 -7.86303
2 -7.86303 3.93151 -7.86303
2 -3.93151 3.93151 -7.86303
2 0 3.93151 -7.86303
2 3.93151 3.93151 -7.86303
2 7.86303 3.93151 -7.86303
2 11.7945 3.93151 -7.86303
2 -7.86303 7.86303 -7.86303
2 -3.93151 7.86303 -7.86303
2 0 7.86303 -7.86303
2 3.93151 7.86303 -7.86303
2 7.86303 7.86303 -7.86303
2 -3.93151 11.7945 -7.86303
2 0 11.7945 -7.86303
2 3.93151 11.7945 -7.86303
2 -7.86303 -11.7945 -3.93151
2 -3.93151 -11.7945 -3.93151
2 0 -11.7945 -3.93151
2 3.93151 -11.7945 -3.93151
2 7.86303 -11.7945 -3.93151
2 -11.7945 -7.86303 -3.93151
2 -7.86303 -7.86303 -3.93151
2 -3.93151 -7.86303 -3.93151
2 0 -7.86303 -3.93151
2 3.93151 -7.86303 -3.93151
2 7.86303 -7.86303 -3.93151
2 11.7945 -7.86303 -3.93151
2 -11.7945 -3.93151 -3.93151
2 -7.86303 -3.93151 -3.93151
2 -3.93151 -3.93151 -3.93151
2 0 -3.93151 -3.93151
2 3.93151 -3.93151 -3.93151
2 7.86303 -3.93151 -3.93151
2 11.7945 -3.93151 -3.93151
2 -11.7945 0 -3.93151
2 -7.86303 0 -3.93151
2 -3.93151 0 -3.93151
2 0 0 -3.93151
2 3.93151 0 -3.93151
2 7.86303 0 -3.93151
2 11.7945 0 -3.93151
2 -11.7945 3.93151 -3.93151
2 -7.86303 3.93151 -3.93151
2 -3.93151 3.93151 -3.93151
2 0 3.93151 -3.93151
2 3.93151 3.93151 -3.93151
2 7.86303 3.93151 -3.93151
2 11.7945 3.93151 -3.93151
2 -11.7945 7.86303 -3.93151
2 -7.86303 7.86303 -3.93151
2 -3.93151 7.86303 -3.93151
2 0 7.86303 -3.93151
2 3.93151 7.86303 -3.93151
2 7.86303 7.86303 -3.93151
2 11.7945 7.86303 -3.93151
2 -7.86303 11.7945 -3.93151
2 -3.93151 11.7945 -3.93151
2 0 11.7945 -3.93151
2 3.93151 11.7945 -3.93151
2 7.86303 11.7945 -3.93151
1 -7.86303 -11.7945 0
1 -3.93151 -11.7945 0
1 0 -11.7945 0
1 3.93151 -11.7945 0
1 7.86303 -11.7945 0
1 -11.7945 -7.86303 0
1 -7.86303 -7.86303 0
1 -3.93151 -7.86303 0
1 0 -7.86303 0
1 3.93151 -7.86303 0
1 7.86303 -7.86303 0
1 11.7945 -7.86303 0
1 -11.7945 -3.93151 0
1 -7.86303 -3.93151 0
1 -3.93151 -3.93151 0
1 0 -3.93151 0
1 3.93151 -3.93151 0
1 7.86303 -3.93151 0
1 11.7945 -3.93151 0
1 -11.7945 0 0
1 -7.86303 0 0
1 -3.93151 0 0
1 0 0 0
1 3.93151 0 0
1 7.86303 0 0
1 11.7945 0 0
1 -11.7945 3.93151 0
1 -7.86303 3.93151 0
1 -3.93151 3.93151 0
1 0 3.93151 0
1 3.93151 3.93151 0
1 7.86303 3.93151 0
1 11.7945 3.93151 0
1 -11.7945 7.86303 0
1 -7.86303 7.86303 0
1 -3.93151 7.86303 0
1 0 7.86303 0
1 3.93151 7.86303 0
1 7.86303 7.86303 0
1 11.7945 7.86303 0
1 -7.86303 11.7945 0
1 -3.93151 11.7945 0
1 0 11.7945 0
1 3.93151 11.7945 0
1 7.86303 11.7945 0
2 -7.86303 -11.7945 3.93151
2 -3.93151 -11.7945 3.93151
2 0 -11.7945 3.93151
2 3.93151 -11.7945 3.93151
2 7.86303 -11.7945 3.93151
2 -11.7945 -7.86303 3.93151
2 -7.86303 -7.86303 3.93151
2 -3.93151 -7.86303 3.93151
2 0 -7.86303 3.93151
2 3.93151 -7.86303 3.93151
2 7.86303 -7.86303 3.93151
2 11.7945 -7.86303 3.93151
2 -11.7945 -3.93151 3.93151
2 -7.86303 -3.93151 3.93151
2 -3.93151 -3.93151 3.93151
2 0 -3.93151 3.93151
2 3.93151 -3.93151 3.93151
2 7.86303 -3.93151 3.93151
2 11.7945 -3.93151 3.93151
2 -11.7945 0 3.93151
2 -7.86303 0 3.93151
2 -3.93151 0 3.93151
2 0 0 3.93151
2 3.93151 0 3.93151
2 7.86303 0 3.93151
2 11.7945 0 3.93151
2 -11.7945 3.93151 3.93151
2 -7.86303 3.93151 3.93151
2 -3.93151 3.93151 3.93151
2 0 3.93151 3.93151
2 3.93151 3.93151 3.93151
2 7.86303 3.93151 3.93151
2 11.7945 3.93151 3.93151
2 -11.7945 7.86303 3.93151
2 -7.86303 7.86303 3.93151
2 -3.93151 7.86303 3.93151
2 0 7.86303 3.93151
2 3.93151 7.86303 3.93151
2 7.86303 7.86303 3.93151
2 11.7945 7.86303 3.93151
2 -7.86303 11.7945 3.93151
2 -3.93151 11.7945 3.93151
2 0 11.7945 3.93151
2 3.93151 11.7945 3.93151
2 7.86303 11.7945 3.93151
2 -3.93151 -11.7945 7.86303
2 0 -11.7945 7.86303
2 3.93151 -11.7945 7.86303
2 -7.86303 -7.86303 7.86303
2 -3.93151 -7.86303 7.86303
2 0 -7.86303 7.86303
2 3.93151 -7.86303 7.86303
2 7.86303 -7.86303 7.86303
2 -11.7945 -3.93151 7.86303
2 -7.86303 -3.93151 7.86303
2 -3.93151 -3.93151 7.86303
2 0 -3.93151 7.86303
2 3.93151 -3.93151 7.86303
2 7.86303 -3.93151 7.86303
2 11.7945 -3.93151 7.86303
2 -11.7945 0 7.86303
2 -7.86303 0 7.86303
2 -3.93151 0 7.86303
2 0 0 7.86303
2 3.93151 0 7.86303
2 7.86303 0 7.86303
2 11.7945 0 7.86303
2 -11.7945 3.93151 7.86303
2 -7.86303 3.93151 7.86303
2 -3.93151 3.93151 7.86303
2 0 3.93151 7.86303
2 3.93151 3.93151 7.86303
2 7.86303 3.93151 7.86303
2 11.7945 3.93151 7.86303
2 -7.86303 7.86303 7.86303
2 -3.93151 7.86303 7.86303
2 0 7.86303 7.86303
2 3.93151 7.86303 7.86303
2 7.86303 7.86303 7.86303
2 -3.93151 11.7945 7.86303
2 0 11.7945 7.86303
2 3.93151 11.7945 7.86303
2 -3.93151 -7.86303 11.7945
2 0 -7.86303 11.7945
2 3.93151 -7.86303 11.7945
2 -7.86303 -3.93151 11.7945
2 -3.93151 -3.93151 11.7945
2 0 -3.93151 11.7945
2 3.93151 -3.93151 11.7945
2 7.86303 -3.93151 11.7945
2 -7.86303 0 11.7945
2 -3.93151 0 11.7945
2 0 0 11.7945
2 3.93151 0 11.7945
2 7.86303 0 11.7945
2 -7.86303 3.93151 11.7945
2 -3.93151 3.93151 11.7945
2 0 3.93151 11.7945
2 3.93151 3.93151 11.7945
2 7.86303 3.93151 11.7945
2 -3.93151 7.86303 11.7945
2 0 7.86303 11.7945
2 3.93151 7.86303 11.7945
2 -5.89727 -5.89727 -11.7945
2 -1.96576 -5.89727 -11.7945
2 1.96576 -5.89727 -11.7945
2 5.89727 -5.89727 -11.7945
2 -5.89727 -1.96576 -11.7945
2 -1.96576 -1.96576 -11.7945
2 1.96576 -1.96576 -11.7945
2 5.89727 -1.96576 -11.7945
2 -5.89727 1.96576 -11.7945
2 -1.96576 1.96576 -11.7945
2 1.96576 1.96576 -11.7945
2 5.89727 1.96576 -11.7945
2 -5.89727 5.89727 -11.7945
2 -1.96576 5.89727 -11.7945
2 1.96576 5.89727 -11.7945
2 5.89727 5.89727 -11.7945
2 -5.89727 -9.82878 -7.86303
2 -1.96576 -9.82878 -7.86303
2 1.96576 -9.82878 -7.86303
2 5.89727 -9.82878 -7.86303
2 -9.82878 -5.89727 -7.86303
2 -5.89727 -5.89727 -7.86303
2 -1.96576 -5.89727 -7.86303
2 1.96576 -5.89727 -7.86303
2 5.89727 -5.89727 -7.86303
2 9.82878 -5.89727 -7.86303
2 -9.82878 -1.96576 -7.86303
2 -5.89727 -1.96576 -7.86303
2 -1.96576 -1.96576 -7.86303
2 1.96576 -1.96576 -7.86303
2 5.89727 -1.96576 -7.86303
2 9.82878 -1.96576 -7.86303
2 -9.82878 1.96576 -7.86303
2 -5.89727 1.96576 -7.86303
2 -1.96576 1.96576 -7.86303
2 1.96576 1.96576 -7.86303
2 5.89727 1.96576 -7.86303
2 9.82878 1.96576 -7.86303
2 -9.82878 5.89727 -7.86303
2 -5.89727 5.89727 -7.86303
2 -1.96576 5.89727 -7.86303
2 1.96576 5.89727 -7.86303
2 5.89727 5.89727 -7.86303
2 9.82878 5.89727 -7.86303
2 -5.89727 9.82878 -7.86303
2 -1.96576 9.82878 -7.86303
2 1.96576 9.82878 -7.86303
2 5.89727 9.82878 -7.86303
2 -1.96576 -13.7603 -3.93151
2 1.96576 -13.7603 -3.93151
2 -9.82878 -9.82878 -3.93151
2 -5.89727 -9.82878 -3.93151
2 -1.96576 -9.82878 -3.93151
2 1.96576 -9.82878 -3.93151
2 5.89727 -9.82878 -3.93151
2 9.82878 -9.82878 -3.93151
2 -9.82878 -5.89727 -3.93151
2 -5.89727 -5.89727 -3.93151
2 -1.96576 -5.89727 -3.93151
2 1.96576 -5.89727 -3.93151
2 5.89727 -5.89727 -3.93151
2 9.82878 -5.89727 -3.93151
2 -13.7603 -1.96576 -3.93151
2 -9.82878 -1.96576 -3.93151
2 -5.89727 -1.96576 -3.93151
2 -1.96576 -1.96576 -3.93151
2 1.96576 -1.96576 -3.93151
2 5.89727 -1.96576 -3.93151
2 9.82878 -1.96576 -3.93151
2 13.7603 -1.96576 -3.93151
2 -13.7603 1.96576 -3.93151
2 -9.82878 1.96576 -3.93151
2 -5.89727 1.96576 -3.93151
2 -1.96576 1.96576 -3.93151
2 1.96576 1.96576 -3.93151
2 5.89727 1.96576 -3.93151
2 9.82878 1.96576 -3.93151
2 13.7603 1.96576 -3.93151
2 -9.82878 5.89727 -3.93151
2 -5.89727 5.89727 -3.93151
2 -1.96576 5.89727 -3.93151
2 1.96576 5.89727 -3.93151
2 5.89727 5.89727 -3.93151
2 9.82878 5.89727 -3.93151
2 -9.82878 9.82878 -3.93151
2 -5.89727 9.82878 -3.93151
2 -1.96576 9.82878 -3.93151
2 1.96576 9.82878 -3.93151
2 5.89727 9.82878 -3.93151
2 9.82878 9.82878 -3.93151
2 -1.96576 13.7603 -3.93151
2 1.96576 13.7603 -3.93151
1 -5.89727 -13.7603 0
1 -1.96576 -13.7603 0
1 1.96576 -13.7603 0
1 5.89727 -13.7603 0
1 -9.82878 -9.82878 0
1 -5.89727 -9.82878 0
1 -1.96576 -9.82878 0
1 1.96576 -9.82878 0
1 5.89727 -9.82878 0
1 9.82878 -9.82878 0
1 -13.7603 -5.89727 0
1 -9.82878 -5.89727 0
1 -5.89727 -5.89727 0
1 -1.96576 -5.89727 0
1 1.96576 -5.89727 0
1 5.89727 -5.89727 0
1 9.82878 -5.89727 0
1 13.7603 -5.89727 0
1 -13.7603 -1.96576 0
1 -9.82878 -1.96576 0
1 -5.89727 -1.96576 0
1 -1.96576 -1.96576 0
1 1.96576 -1.96576 0
1 5.89727 -1.96576 0
1 9.82878 -1.96576 0
1 13.7603 -1.96576 0
1 -13.7603 1.96576 0
1 -9.82878 1.96576 0
1 -5.89727 1.96576 0
1 -1.96576 1.96576 0
1 1.96576 1.96576 0
1 5.89727 1.96576 0
1 9.82878 1.96576 0
1 13.7603 1.96576 0
1 -13.7603 5.89727 0
1 -9.82878 5.89727 0
1 -5.89727 5.89727 0
1 -1.96576 5.89727 0
1 1.96576 5.89727 0
1 5.89727 5.89727 0
1 9.82878 5.89727 0
1 13.7603 5.89727 0
1 -9.82878 9.82878 0
1 -5.89727 9.82878 0
1 -1.96576 9.82878 0
1 1.96576 9.82878 0
1 5.89727 9.82878 0
1 9.82878 9.82878 0
1 -5.89727 13.7603 0
1 -1.96576 13.7603 0
1 1.96576 13.7603 0
1 5.89727 13.7603 0
2 -1.96576 -13.7603 3.93151
2 1.96576 -13.7603 3.93151
2 -9.82878 -9.82878 3.93151
2 -5.89727 -9.82878 3.93151
2 -1.96576 -9.82878 3.93151
2 1.96576 -9.82878 3.93151
2 5.89727 -9.82878 3.93151
2 9.82878 -9.82878 3.93151
2 -9.82878 -5.89727 3.93151
2 -5.89727 -5.89727 3.93151
2 -1.96576 -5.89727 3.93151
2 1.96576 -5.89727 3.93151
2 5.89727 -5.89727 3.93151
2 9.82878 -5.89727 3.93151
2 -13.7603 -1.96576 3.93151
2 -9.82878 -1.96576 3.93151
2 -5.89727 -1.96576 3.93151
2 -1.96576 -1.96576 3.93151
2 1.96576 -1.96576 3.93151
2 5.89727 -1.96576 3.93151
2 9.82878 -1.96576 3.93151
2 13.7603 -1.96576 3.93151
2 -13.7603 1.96576 3.93151
2 -9.82878 1.96576 3.93151
2 -5.89727 1.96576 3.93151
2 -1.96576 1.96576 3.93151
2 1.96576 1.96576 3.93151
2 5.89727 1.96576 3.93151
2 9.82878 1.96576 3.93151
2 13.7603 1.96576 3.93151
2 -9.82878 5.89727 3.93151
2 -5.89727 5.89727 3.93151
2 -1.96576 5.89727 3.93151
2 1.96576 5.89727 3.93151
2 5.89727 5.89727 3.93151
2 9.82878 5.89727 3.93151
2 -9.82878 9.82878 3.93151
2 -5.89727 9.82878 3.93151
2 -1.96576 9.82878 3.93151
2 1.96576 9.82878 3.93151
2 5.89727 9.82878 3.93151
2 9.82878 9.82878 3.93151
2 -1.96576 13.7603 3.93151
2 1.96576 13.7603 3.93151
2 -5.89727 -9.82878 7.86303
2 -1.96576 -9.82878 7.86303
2 1.96576 -9.82878 7.86303
2 5.89727 -9.82878 7.86303
2 -9.82878 -5.89727 7.86303
2 -5.89727 -5.89727 7.86303
2 -1.96576 -5.89727 7.86303
2 1.96576 -5.89727 7.86303
2 5.89727 -5.89727 7.86303
2 9.82878 -5.89727 7.86303
2 -9.82878 -1.96576 7.86303
2 -5.89727 -1.96576 7.86303
2 -1.96576 -1.96576 7.86303
2 1.96576 -1.96576 7.86303
2 5.89727 -1.96576 7.86303
2 9.82878 -1.96576 7.86303
2 -9.82878 1.96576 7.86303
2 -5.89727 1.96576 7.86303
2 -1.96576 1.96576 7.86303
2 1.96576 1.96576 7.86303
2 5.89727 1.96576 7.86303
2 9.82878 1.96576 7.86303
2 -9.82878 5.89727 7.86303
2 -5.89727 5.89727 7.86303
2 -1.96576 5.89727 7.86303
2 1.96576 5.89727 7.86303
2 5.89727 5.89727 7.86303
2 9.82878 5.89727 7.86303
2 -5.89727 9.82878 7.86303
2 -1.96576 9.82878 7.86303
2 1.96576 9.82878 7.86303
2 5.89727 9.82878 7.86303
2 -5.89727 -5.89727 11.7945
2 -1.96576 -5.89727 11.7945
2 1.96576 -5.89727 11.7945
2 5.89727 -5.89727 11.7945
2 -5.89727 -1.96576 11.7945
2 -1.96576 -1.96576 11.7945
2 1.96576 -1.96576 11.7945
2 5.89727 -1.96576 11.7945
2 -5.89727 1.96576 11.7945
2 -1.96576 1.96576 11.7945
2 1.96576 1.96576 11.7945
2 5.89727 1.96576 11.7945
2 -5.89727 5.89727 11.7945
2 -1.96576 5.89727 11.7945
2 1.96576 5.89727 11.7945
2 5.89727 5.89727 11.7945
2 -5.89727 -11.7945 -5.89727
2 -1.96576 -11.7945 -5.89727
2 1.96576 -11.7945 -5.89727
2 5.89727 -11.7945 -5.89727
1 -5.89727 -11.7945 -1.96576
1 -1.96576 -11.7945 -1.96576
1 1.96576 -11.7945 -1.96576
1 5.89727 -11.7945 -1.96576
1 -5.89727 -11.7945 1.96576
1 -1.96576 -11.7945 1.96576
1 1.96576 -11.7945 1.96576
1 5.89727 -11.7945 1.96576
2 -5.89727 -11.7945 5.89727
2 -1.96576 -11.7945 5.89727
2 1.96576 -11.7945 5.89727
2 5.89727 -11.7945 5.89727
2 -5.89727 -7.86303 -9.82878
2 -1.96576 -7.86303 -9.82878
2 1.96576 -7.86303 -9.82878
2 5.89727 -7.86303 -9.82878
2 -9.82878 -7.86303 -5.89727
2 -5.89727 -7.86303 -5.89727
2 -1.96576 -7.86303 -5.89727
2 1.96576 -7.86303 -5.89727
2 5.89727 -7.86303 -5.89727
2 9.82878 -7.86303 -5.89727
1 -9.82878 -7.86303 -1.96576
1 -5.89727 -7.86303 -1.96576
1 -1.96576 -7.86303 -1.96576
1 1.96576 -7.86303 -1.96576
1 5.89727 -7.86303 -1.96576
1 9.82878 -7.86303 -1.96576
1 -9.82878 -7.86303 1.96576
1 -5.89727 -7.86303 1.96576
1 -1.96576 -7.86303 1.96576
1 1.96576 -7.86303 1.96576
1 5.89727 -7.86303 1.96576
1 9.82878 -7.86303 1.96576
2 -9.82878 -7.86303 5.89727
2 -5.89727 -7.86303 5.89727
2 -1.96576 -7.86303 5.89727
2 1.96576 -7.86303 5.89727
2 5.89727 -7.86303 5.89727
2 9.82878 -7.86303 5.89727
2 -5.89727 -7.86303 9.82878
2 -1.96576 -7.86303 9.82878
2 1.96576 -7.86303 9.82878
2 5.89727 -7.86303 9.82878
2 -1.96576 -3.93151 -13.7603
2 1.96576 -3.93151 -13.7603
2 -9.82878 -3.93151 -9.82878
2 -5.89727 -3.93151 -9.82878
2 -1.96576 -3.93151 -9.82878
2 1.96576 -3.93151 -9.82878
2 5.89727 -3.93151 -9.82878
2 9.82878 -3.93151 -9.82878
2 -9.82878 -3.93151 -5.89727
2 -5.89727 -3.93151 -5.89727
2 -1.96576 -3.93151 -5.89727
2 1.96576 -3.93151 -5.89727
2 5.89727 -3.93151 -5.89727
2 9.82878 -3.93151 -5.89727
1 -13.7603 -3.93151 -1.96576
1 -9.82878 -3.93151 -1.96576
1 -5.89727 -3.93151 -1.96576
1 -1.96576 -3.93151 -1.96576
1 1.96576 -3.93151 -1.96576
1 5.89727 -3.93151 -1.96576
1 9.82878 -3.93151 -1.96576
1 13.7603 -3.93151 -1.96576
1 -13.7603 -3.93151 1.96576
1 -9.82878 -3.93151 1.96576
1 -5.89727 -3.93151 1.96576
1 -1.96576 -3.93151 1.96576
1 1.96576 -3.93151 1.96576
1 5.89727 -3.93151 1.96576
1 9.82878 -3.93151 1.96576
1 13.7603 -3.93151 1.96576
2 -9.82878 -3.93151 5.89727
2 -5.89727 -3.93151 5.89727
2 -1.96576 -3.93151 5.89727
2 1.96576 -3.93151 5.89727
2 5.89727 -3.93151 5.89727
2 9.82878 -3.93151 5.89727
2 -9.82878 -3.93151 9.82878
2 -5.89727 -3.93151 9.82878
2 -1.96576 -3.93151 9.82878
2 1.96576 -3.93151 9.82878
2 5.89727 -3.93151 9.82878
2 9.82878 -3.93151 9.82878
2 -1.96576 -3.93151 13.7603
2 1.96576 -3.93151 13.7603
2 -5.89727 0 -13.7603
2 -1.96576 0 -13.7603
2 1.96576 0 -13.7603
2 5.89727 0 -13.7603
2 -9.82878 0 -9.82878
2 -5.89727 0 -9.82878
2 -1.96576 0 -9.82878
2 1.96576 0 -9.82878
2 5.89727 0 -9.82878
2 9.82878 0 -9.82878
2 -13.7603 0 -5.89727
2 -9.82878 0 -5.89727
2 -5.89727 0 -5.89727
2 -1.96576 0 -5.89727
2 1.96576 0 -5.89727
2 5.89727 0 -5.89727
2 9.82878 0 -5.89727
2 13.7603 0 -5.89727
1 -13.7603 0 -1.96576
1 -9.82878 0 -1.96576
1 -5.89727 0 -1.96576
1 -1.96576 0 -1.96576
1 1.96576 0 -1.96576
1 5.89727 0 -1.96576
1 9.82878 0 -1.96576
1 13.7603 0 -1.96576
1 -13.7603 0 1.96576
1 -9.82878 0 1.96576
1 -5.89727 0 1.96576
1 -1.96576 0 1.96576
1 1.96576 0 1.96576
1 5.89727 0 1.96576
1 9.82878 0 1.96576
1 13.7603 0 1.96576
2 -13.7603 0 5.89727
2 -9.82878 0 5.89727
2 -5.89727 0 5.89727
2 -1.96576 0 5.89727
2 1.96576 0 5.89727
2 5.89727 0 5.89727
2 9.82878 0 5.89727
2 13.7603 0 5.89727
2 -9.82878 0 9.82878
2 -5.89727 0 9.82878
2 -1.96576 0 9.82878
2 1.96576 0 9.82878
2 5.89727 0 9.82878
2 9.82878 0 9.82878
2 -5.89727 0 13.7603
2 -1.96576 0 13.7603
2 1.96576 0 13.7603
2 5.89727 0 13.7603
2 -1.96576 3.93151 -13.7603
2 1.96576 3.93151 -13.7603
2 -9.82878 3.93151 -9.82878
2 -5.89727 3.93151 -9.82878
2 -1.96576 3.93151 -9.82878
2 1.96576 3.93151 -9.82878
2 5.89727 3.93151 -9.82878
2 9.82878 3.93151 -9.82878
2 -9.82878 3.93151 -5.89727
2 -5.89727 3.93151 -5.89727
2 -1.96576 3.93151 -5.89727
2 1.96576 3.93151 -5.89727
2 5.89727 3.93151 -5.89727
2 9.82878 3.93151 -5.89727
1 -13.7603 3.93151 -1.96576
1 -9.82878 3.93151 -1.96576
1 -5.89727 3.93151 -1.96576
1 -1.96576 3.93151 -1.96576
1 1.96576 3.93151 -1.96576
1 5.89727 3.93151 -1.96576
1 9.82878 3.93151 -1.96576
1 13.7603 3.93151 -1.96576
1 -13.7603 3.93151 1.96576
1 -9.82878 3.93151 1.96576
1 -5.89727 3.93151 1.96576
1 -1.96576 3.93151 1.96576
1 1.96576 3.93151 1.96576
1 5.89727 3.93151 1.96576
1 9.82878 3.93151 1.96576
1 13.7603 3.93151 1.96576
2 -9.82878 3.93151 5.89727
2 -5.89727 3.93151 5.89727
2 -1.96576 3.93151 5.89727
2 1.96576 3.93151 5.89727
2 5.89727 3.93151 5.89727
2 9.82878 3.93151 5.89727
2 -9.82878 3.93151 9.82878
2 -5.89727 3.93151 9.82878
2 -1.96576 3.93151 9.82878
2 1.96576 3.93151 9.82878
2 5.89727 3.93151 9.82878
2 9.82878 3.93151 9.82878
2 -1.96576 3.93151 13.7603
2 1.96576 3.93151 13.7603
2 -5.89727 7.86303 -9.82878
2 -1.96576 7.86303 -9.82878
2 1.96576 7.86303 -9.82878
2 5.89727 7.86303 -9.82878
2 -9.82878 7.86303 -5.89727
2 -5.89727 7.86303 -5.89727
2 -1.96576 7.86303 -5.89727
2 1.96576 7.86303 -5.89727
2 5.89727 7.86303 -5.89727
2 9.82878 7.86303 -5.89727
1 -9.82878 7.86303 -1.96576
1 -5.89727 7.86303 -1.96576
1 -1.96576 7.86303 -1.96576
1 1.96576 7.86303 -1.96576
1 5.89727 7.86303 -1.96576
1 9.82878 7.86303 -1.96576
1 -9.82878 7.86303 1.96576
1 -5.89727 7.86303 1.96576
1 -1.96576 7.86303 1.96576
1 1.96576 7.86303 1.96576
1 5.89727 7.86303 1.96576
1 9.82878 7.86303 1.96576
2 -9.82878 7.86303 5.89727
2 -5.89727 7.86303 5.89727
2 -1.96576 7.86303 5.89727
2 1.96576 7.86303 5.89727
2 5.89727 7.86303 5.89727
2 9.82878 7.86303 5.89727
2 -5.89727 7.86303 9.82878
2 -1.96576 7.86303 9.82878
2 1.96576 7.86303 9.82878
2 5.89727 7.86303 9.82878
2 -5.89727 11.7945 -5.89727
2 -1.96576 11.7945 -5.89727
2 1.96576 11.7945 -5.89727
2 5.89727 11.7945 -5.89727
1 -5.89727 11.7945 -1.96576
1 -1.96576 11.7945 -1.96576
1 1.96576 11.7945 -1.96576
1 5.89727 11.7945 -1.96576
1 -5.89727 11.7945 1.96576
1 -1.96576 11.7945 1.96576
1 1.96576 11.7945 1.96576
1 5.89727 11.7945 1.96576
2 -5.89727 11.7945 5.89727
2 -1.96576 11.7945 5.89727
2 1.96576 11.7945 5.89727
2 5.89727 11.7945 5.89727
2 -11.7945 -5.89727 -5.89727
2 -11.7945 -1.96576 -5.89727
2 -11.7945 1.96576 -5.89727
2 -11.7945 5.89727 -5.89727
1 -11.7945 -5.89727 -1.96576
1 -11.7945 -1.96576 -1.96576
1 -11.7945 1.96576 -1.96576
1 -11.7945 5.89727 -1.96576
1 -11.7945 -5.89727 1.96576
1 -11.7945 -1.96576 1.96576
1 -11.7945 1.96576 1.96576
1 -11.7945 5.89727 1.96576
2 -11.7945 -5.89727 5.89727
2 -11.7945 -1.96576 5.89727
2 -11.7945 1.96576 5.89727
2 -11.7945 5.89727 5.89727
2 -7.86303 -5.89727 -9.82878
2 -7.86303 -1.96576 -9.82878
2 -7.86303 1.96576 -9.82878
2 -7.86303 5.89727 -9.82878
2 -7.86303 -9.82878 -5.89727
2 -7.86303 -5.89727 -5.89727
2 -7.86303 -1.96576 -5.89727
2 -7.86303 1.96576 -5.89727
2 -7.86303 5.89727 -5.89727
2 -7.86303 9.82878 -5.89727
1 -7.86303 -9.82878 -1.96576
1 -7.86303 -5.89727 -1.96576
1 -7.86303 -1.96576 -1.96576
1 -7.86303 1.96576 -1.96576
1 -7.86303 5.89727 -1.96576
1 -7.86303 9.82878 -1.96576
1 -7.86303 -9.82878 1.96576
1 -7.86303 -5.89727 1.96576
1 -7.86303 -1.96576 1.96576
1 -7.86303 1.96576 1.96576
1 -7.86303 5.89727 1.96576
1 -7.86303 9.82878 1.96576
2 -7.86303 -9.82878 5.89727
2 -7.86303 -5.89727 5.89727
2 -7.86303 -1.96576 5.89727
2 -7.86303 1.96576 5.89727
2 -7.86303 5.89727 5.89727
2 -7.86303 9.82878 5.89727
2 -7.86303 -5.89727 9.82878
2 -7.86303 -1.96576 9.82878
2 -7.86303 1.96576 9.82878
2 -7.86303 5.89727 9.82878
2 -3.93151 -1.96576 -13.7603
2 -3.93151 1.96576 -13.7603
2 -3.93151 -9.82878 -9.82878
2 -3.93151 -5.89727 -9.82878
2 -3.93151 -1.96576 -9.82878
2 -3.93151 1.96576 -9.82878
2 -3.93151 5.89727 -9.82878
2 -3.93151 9.82878 -9.82878
2 -3.93151 -9.82878 -5.89727
2 -3.93151 -5.89727 -5.89727
2 -3.93151 -1.96576 -5.89727
2 -3.93151 1.96576 -5.89727
2 -3.93151 5.89727 -5.89727
2 -3.93151 9.82878 -5.89727
1 -3.93151 -13.7603 -1.96576
1 -3.93151 -9.82878 -1.96576
1 -3.93151 -5.89727 -1.96576
1 -3.93151 -1.96576 -1.96576
1 -3.93151 1.96576 -1.96576
1 -3.93151 5.89727 -1.96576
1 -3.93151 9.82878 -1.96576
1 -3.93151 13.7603 -1.96576
1 -3.93151 -13.7603 1.96576
1 -3.93151 -9.82878 1.96576
1 -3.93151 -5.89727 1.96576
1 -3.93151 -1.96576 1.96576
1 -3.93151 1.96576 1.96576
1 -3.93151 5.89727 1.96576
1 -3.93151 9.82878 1.96576
1 -3.93151 13.7603 1.96576
2 -3.93151 -9.82878 5.89727
2 -3.93151 -5.89727 5.89727
2 -3.93151 -1.96576 5.89727
2 -3.93151 1.96576 5.89727
2 -3.93151 5.89727 5.89727
2 -3.93151 9.82878 5.89727
2 -3.93151 -9.82878 9.82878
2 -3.93151 -5.89727 9.82878
2 -3.93151 -1.96576 9.82878
2 -3.93151 1.96576 9.82878
2 -3.93151 5.89727 9.82878
2 -3.93151 9.82878 9.82878
2 -3.93151 -1.96576 13.7603
2 -3.93151 1.96576 13.7603
2 0 -5.89727 -13.7603
2 0 -1.96576 -13.7603
2 0 1.96576 -13.7603
2 0 5.89727 -13.7603
2 0 -9.82878 -9.82878
2 0 -5.89727 -9.82878
2 0 -1.96576 -9.82878
2 0 1.96576 -9.82878
2 0 5.89727 -9.82878
2 0 9.82878 -9.82878
2 0 -13.7603 -5.89727
2 0 -9.82878 -5.89727
2 0 -5.89727 -5.89727
2 0 -1.96576 -5.89727
2 0 1.96576 -5.89727
2 0 5.89727 -5.89727
2 0 9.82878 -5.89727
2 0 13.7603 -5.89727
1 0 -13.7603 -1.96576
1 0 -9.82878 -1.96576
1 0 -5.89727 -1.96576
1 0 -1.96576 -1.96576
1 0 1.96576 -1.96576
1 0 5.89727 -1.96576
1 0 9.82878 -1.96576
1 0 13.7603 -1.96576
1 0 -13.7603 1.96576
1 0 -9.82878 1.96576
1 0 -5.89727 1.96576
1 0 -1.96576 1.96576
1 0 1.96576 1.96576
1 0 5.89727 1.96576
1 0 9.82878 1.96576
1 0 13.7603 1.96576
2 0 -13.7603 5.89727
2 0 -9.82878 5.89727
2 0 -5.89727 5.89727
2 0 -1.96576 5.89727
2 0 1.96576 5.89727
2 0 5.89727 5.89727
2 0 9.82878 5.89727
2 0 13.7603 5.89727
2 0 -9.82878 9.82878
2 0 -5.89727 9.82878
2 0 -1.96576 9.82878
2 0 1.96576 9.82878
2 0 5.89727 9.82878
2 0 9.82878 9.82878
2 0 -5.89727 13.7603
2 0 -1.96576 13.7603
2 0 1.96576 13.7603
2 0 5.89727 13.7603
2 3.93151 -1.96576 -13.7603
2 3.93151 1.96576 -13.7603
2 3.93151 -9.82878 -9.82878
2 3.93151 -5.89727 -9.82878
2 3.93151 -1.96576 -9.82878
2 3.93151 1.96576 -9.82878
2 3.93151 5.89727 -9.82878
2 3.93151 9.82878 -9.82878
2 3.93151 -9.82878 -5.89727
2 3.93151 -5.89727 -5.89727
2 3.93151 -1.96576 -5.89727
2 3.93151 1.96576 -5.89727
2 3.93151 5.89727 -5.89727
2 3.93151 9.82878 -5.89727
1 3.93151 -13.7603 -1.96576
1 3.93151 -9.82878 -1.96576
1 3.93151 -5.89727 -1.96576
1 3.93151 -1.96576 -1.96576
1 3.93151 1.96576 -1.96576
1 3.93151 5.89727 -1.96576
1 3.93151 9.82878 -1.96576
1 3.93151 13.7603 -1.96576
1 3.93151 -13.7603 1.96576
1 3.93151 -9.82878 1.96576
1 3.93151 -5.89727 1.96576
1 3.93151 -1.96576 1.96576
1 3.93151 1.96576 1.96576
1 3.93151 5.89727 1.96576
1 3.93151 9.82878 1.96576
1 3.93151 13.7603 1.96576
2 3.93151 -9.82878 5.89727
2 3.93151 -5.89727 5.89727
2 3.93151 -1.96576 5.89727
2 3.93151 1.96576 5.89727
2 3.93151 5.89727 5.89727
2 3.93151 9.82878 5.89727
2 3.93151 -9.82878 9.82878
2 3.93151 -5.89727 9.82878
2 3.93151 -1.96576 9.82878
2 3.93151 1.96576 9.82878
2 3.93151 5.89727 9.82878
2 3.93151 9.82878 9.82878
2 3.93151 -1.96576 13.7603
2 3.93151 1.96576 13.7603
2 7.86303 -5.89727 -9.82878
2 7.86303 -1.96576 -9.82878
2 7.86303 1.96576 -9.82878
2 7.86303 5.89727 -9.82878
2 7.86303 -9.82878 -5.89727
2 7.86303 -5.89727 -5.89727
2 7.86303 -1.96576 -5.89727
2 7.86303 1.96576 -5.89727
2 7.86303 5.89727 -5.89727
2 7.86303 9.82878 -5.89727
1 7.86303 -9.82878 -1.96576
1 7.86303 -5.89727 -1.96576
1 7.86303 -1.96576 -1.96576
1 7.86303 1.96576 -1.96576
1 7.86303 5.89727 -1.96576
1 7.86303 9.82878 -1.96576
1 7.86303 -9.82878 1.96576
1 7.86303 -5.89727 1.96576
1 7.86303 -1.96576 1.96576
1 7.86303 1.96576 1.96576
1 7.86303 5.89727 1.96576
1 7.86303 9.82878 1.96576
2 7.86303 -9.82878 5.89727
2 7.86303 -5.89727 5.89727
2 7.86303 -1.96576 5.89727
2 7.86303 1.96576 5.89727
2 7.86303 5.89727 5.89727
2 7.86303 9.82878 5.89727
2 7.86303 -5.89727 9.82878
2 7.86303 -1.96576 9.82878
2 7.86303 1.96576 9.82878
2 7.86303 5.89727 9.82878
2 11.7945 -5.89727 -5.89727
2 11.7945 -1.96576 -5.89727
2 11.7945 1.96576 -5.89727
2 11.7945 5.89727 -5.89727
1 11.7945 -5.89727 -1.96576
1 11.7945 -1.96576 -1.96576
1 11.7945 1.96576 -1.96576
1 11.7945 5.89727 -1.96576
1 11.7945 -5.89727 1.96576
1 11.7945 -1.96576 1.96576
1 11.7945 1.96576 1.96576
1 11.7945 5.89727 1.96576
2 11.7945 -5.89727 5.89727
2 11.7945 -1.96576 5.89727
2 11.7945 1.96576 5.89727
2 11.7945 5.89727 5.89727
959
 Atoms. Timestep: 10
2 -3.8992 -7.82588 -11.7563
2 -0.0225564 -7.78294 -11.7283
2 4.04659 -7.78102 -11.6848
2 -7.77912 -4.04661 -11.6602
2 -3.87975 -3.86161 -11.759
2 -0.0192075 -3.94246 -11.8147
2 3.92357 -3.98764 -11.7787
2 7.84083 -3.68448 -11.7025
2 -7.81411 0.0805521 -11.6953
2 -3.95052 0.0475677 -11.8008
2 0.0309911 0.0134377 -11.79
2 3.95493 0.0161739 -11.8871
2 7.83959 0.0476186 -11.7442
2 -7.78867 3.88202 -11.7291
2 -3.96506 3.91104 -11.7685
2 -0.0956307 3.88946 -11.8609
2 3.95495 3.95397 -11.9153
2 7.99476 3.71879 -11.709
2 -3.95163 7.84326 -11.7079
2 0.0257875 7.90682 -11.8348
2 3.94171 7.83921 -11.6795
2 -3.94798 -11.6807 -7.70553
2 -0.0079117 -11.7959 -7.77581
2 3.95658 -11.7374 -7.78569
2 -7.82184 -7.9333 -7.85738
2 -4.02904 -7.90887 -7.81941
2 -0.0125457 -7.969 -7.83339
2 3.94215 -7.85429 -7.88988
2 7.82651 -7.82024 -7.82687
2 -11.737 -3.93054 -7.77259
2 -7.92721 -3.94992 -8.02663
2 -3.93075 -3.91773 -7.87341
2 0.00402014 -3.90447 -7.77888
2 3.89291 -3.91834 -7.89857
2 7.9061 -4.00287 -7.88846
2 11.7791 -3.96174 -7.78736
2 -11.7303 0.106681 -7.72277
2 -7.91154 -0.048778 -7.90037
2 -3.9914 -0.0325818 -7.77644
2 0.0110214 -0.102659 -7.87807
2 3.89415 -0.0150611 -7.86467
2 7.83307 -0.0198086 -7.89547
2 11.8259 -0.121033 -7.94647
2 -11.5765 3.96694 -7.92138
2 -7.9198 3.95751 -7.8964
2 -3.95872 3.88256 -7.84811
2 -0.0405282 3.90339 -7.89276
2 3.86732 3.96583 -7.82003
2 7.83143 3.93063 -7.80659
2 11.592 3.92735 -7.82633
2 -7.81902 7.87617 -7.90128
2 -3.91462 7.88358 -7.90619
2 -0.028838 7.90975 -7.8301
2 3.9539 7.92127 -7.86345
2 7.81623 7.88893 -7.74381
2 -3.99105 11.6995 -7.86992
2 0.0203774 11.8108 -7.80554
2 3.98418 11.8457 -7.94849
2 -7.8174 -11.5761 -3.81222
2 -3.92603 -11.7065 -3.80875
2 -0.0141595 -11.8126 -3.90675
2 3.91215 -11.7448 -3.71338
2 7.63552 -11.6431 -3.88984
2 -11.6251 -7.73253 -3.96974
2 -7.93071 -7.92162 -3.92041
2 -3.92919 -7.73554 -3.74223
2 -0.0543363 -8.01207 -3.80563
2 3.94174 -7.82465 -3.96875
2 7.84244 -7.90057 -3.91966
2 11.5917 -7.81319 -3.89011
2 -11.7475 -3.88317 -3.92005
2 -7.89766 -3.89247 -3.83934
2 -3.90011 -3.98729 -3.83922
2 -0.0304445 -3.97178 -3.754
2 3.97911 -3.8897 -3.84551
2 7.98885 -3.83845 -3.86348
2 11.8339 -3.90797 -3.79923
2 -11.848 0.00240881 -3.89574
2 -7.87917 -0.0545432 -3.79905
2 -3.98376 0.042119 -3.84005
2 -0.0111325 -0.0194449 -3.78552
2 3.86379 -0.0671723 -3.90701
2 7.81612 -0.0967223 -3.87733
2 11.8477 -0.152825 -3.82251
2 -11.7308 3.81704 -3.81344
2 -7.89442 3.98149 -3.81538
2 -3.95083 3.85972 -3.78692
2 -0.212585 3.98599 -3.79658
2 4.01931 3.89806 -3.8916
2 7.87089 3.92901 -3.90313
2 11.8243 3.96546 -3.9533
2 -11.6241 7.79644 -3.79922
2 -7.85611 7.8906 -3.82014
2 -4.02388 7.89106 -3.92362
2 0.0375794 7.81151 -3.82592
2 3.87812 7.88465 -3.87805
2 7.84426 7.92076 -3.85406
2 11.6632 7.83906 -3.89193
2 -7.83167 11.5564 -4.02827
2 -3.91379 11.7405 -3.8464
2 0.00744333 11.8105 -3.90228
2 4.03761 11.7965 -3.82351
2 7.75827 11.7032 -3.93439
1 -7.73248 -11.676 0.090181
1 -4.00682 -11.7612 -0.0877541
1 -0.0670872 -11.7491 0.0702156
1 3.96681 -11.6607 0.0729093
1 7.84059 -11.7645 0.024547
1 -11.6986 -7.72034 -0.0928532
1 -7.92249 -8.00497 -0.0339309
1 -3.89463 -7.85122 -0.0197543
1 -0.0119813 -7.72217 0.0438617
1 3.94136 -7.89791 -0.00772641
1 7.79818 -7.89866 -0.042122
1 11.5938 -7.85905 0.0759764
1 -11.8299 -3.98631 -0.154467
1 -7.84339 -3.86931 -0.0612698
1 -3.93487 -4.01288 -0.101455
1 -0.00288174 -3.87631 -0.0378171
1 3.96196 -3.85442 0.0857351
1 7.92375 -3.8453 0.0227094
1 11.8381 -3.9935 -0.0802014
1 -11.8027 -0.0324582 -0.0152361
1 -7.77777 0.035373 -0.0252973
1 -3.95726 0.0739929 0.0070511
1 0.0266169 -0.0383084 -0.106718
1 3.96881 -0.0218705 -0.0131855
1 7.90594 0.0359226 -0.0258726
1 11.8594 0.0111847 0.0255854
1 -11.724 3.89149 -0.0687172
1 -7.85587 3.95018 0.0732567
1 -3.86401 3.9286 0.092066
1 -0.0267073 3.86427 0.0315755
1 3.90342 3.97467 -0.0785257
1 7.93554 3.96886 -0.0392109
1 11.8303 3.88418 -0.0281099
1 -11.7947 7.64105 -0.0144709
1 -7.76239 7.85335 0.0816166
1 -3.85629 7.88335 -0.0649465
1 -0.0238826 7.84938 -0.0977529
1 4.0153 7.92717 0.0374618
1 7.93075 7.95099 0.0274923
1 11.7275 7.6599 0.0451984
1 -7.70561 11.7461 0.0916988
1 -3.84851 11.8138 0.0271083
1 0.0603935 11.7892 0.0369753
1 3.87144 11.8276 0.0527717
1 7.78517 11.6869 -0.0295373
2 -7.80456 -11.8627 3.84619
2 -3.93682 -11.6741 3.75119
2 -0.00792433 -11.8008 3.96299
2 3.95293 -11.8356 3.81625
2 7.85729 -11.6342 3.88424
2 -11.7451 -7.87329 3.71171
2 -7.91864 -7.98869 3.86004
2 -3.90814 -7.86873 3.91678
2 -0.0929329 -7.8781 3.83559
2 4.06739 -7.92473 3.89948
2 7.83228 -7.88049 3.82739
2 11.7089 -7.89722 3.90392
2 -11.7612 -3.92368 3.81877
2 -7.82677 -3.87188 3.87998
2 -3.89643 -4.00823 3.94181
2 0.0501814 -3.93719 3.65194
2 3.93529 -3.87411 3.82918
2 7.78036 -3.96346 3.8289
2 11.8838 -3.93954 3.98473
2 -11.8738 0.0363613 3.83596
2 -7.78901 -0.0167111 3.8701
2 -3.89506 0.053125 3.72955
2 -0.0384012 0.0182932 3.83864
2 3.95861 -0.0225938 3.75947
2 7.89692 -0.0458095 3.9172
2 11.831 0.0128731 3.8339
2 -11.7809 3.83751 3.89526
2 -7.92384 3.84248 3.93274
2 -3.89877 4.05053 3.8451
2 -0.0379525 4.00672 3.97161
2 3.95751 4.05233 3.77385
2 7.73927 3.9343 3.74913
2 11.7581 3.86663 3.84997
2 -11.5804 7.57276 3.94262
2 -7.8895 7.88925 3.7697
2 -3.98421 7.92584 3.89228
2 -0.0235449 7.8235 3.86712
2 3.91254 7.98244 3.78353
2 7.93078 7.87238 3.80714
2 11.7039 7.76355 3.95702
2 -7.80164 11.6187 3.93373
2 -3.96503 11.8107 3.81802
2 0.0264456 11.7959 3.78314