LAMMPS DATA FOR MEAM SIMULATION

    959   atoms
      2   atom types

  -23.76   23.76   xlo xhi
  -23.76   23.76   ylo yhi
  -23.76   23.76   zlo zhi

 Atoms

     1   2    -3.93151    -7.86303   -11.79454
     2   2     0.00000    -7.86303   -11.79454
     3   2     3.93151    -7.86303   -11.79454
     4   2    -7.86303    -3.93151   -11.79454
     5   2    -3.93151    -3.93151   -11.79454
     6   2     0.00000    -3.93151   -11.79454
     7   2     3.93151    -3.93151   -11.79454
     8   2     7.86303    -3.93151   -11.79454
     9   2    -7.86303     0.00000   -11.79454
    10   2    -3.93151     0.00000   -11.79454
    11   2     0.00000     0.00000   -11.79454
    12   2     3.93151     0.00000   -11.79454
    13   2     7.86303     0.00000   -11.79454
    14   2    -7.86303     3.93151   -11.79454
    15   2    -3.93151     3.93151   -11.79454
    16   2     0.00000     3.93151   -11.79454
    17   2     3.93151     3.93151   -11.79454
    18   2     7.86303     3.93151   -11.79454
    19   2    -3.93151     7.86303   -11.79454
    20   2     0.00000     7.86303   -11.79454
    21   2     3.93151     7.86303   -11.79454
    22   2    -3.93151   -11.79454    -7.86303
    23   2     0.00000   -11.79454    -7.86303
    24   2     3.93151   -11.79454    -7.86303
    25   2    -7.86303    -7.86303    -7.86303
    26   2    -3.93151    -7.86303    -7.86303
    27   2     0.00000    -7.86303    -7.86303
    28   2     3.93151    -7.86303    -7.86303
    29   2     7.86303    -7.86303    -7.86303
    30   2   -11.79454    -3.93151    -7.86303
    31   2    -7.86303    -3.93151    -7.86303
    32   2    -3.93151    -3.93151    -7.86303
    33   2     0.00000    -3.93151    -7.86303
    34   2     3.93151    -3.93151    -7.86303
    35   2     7.86303    -3.93151    -7.86303
    36   2    11.79454    -3.93151    -7.86303
    37   2   -11.79454     0.00000    -7.86303
    38   2    -7.86303     0.00000    -7.86303
    39   2    -3.93151     0.00000    -7.86303
    40   2     0.00000     0.00000    -7.86303
    41   2     3.93151     0.00000    -7.86303
    42   2     7.86303     0.00000    -7.86303
    43   2    11.79454     0.00000    -7.86303
    44   2   -11.79454     3.93151    -7.86303
    45   2    -7.86303     3.93151    -7.86303
    46   2    -3.93151     3.93151    -7.86303
    47   2     0.00000     3.93151    -7.86303
    48   2     3.93151     3.93151    -7.86303
    49   2     7.86303     3.93151    -7.86303
    50   2    11.79454     3.93151    -7.86303
    51   2    -7.86303     7.86303    -7.86303
    52   2    -3.93151     7.86303    -7.86303
    53   2     0.00000     7.86303    -7.86303
    54   2     3.93151     7.86303    -7.86303
    55   2     7.86303     7.86303    -7.86303
    56   2    -3.93151    11.79454    -7.86303
    57   2     0.00000    11.79454    -7.86303
    58   2     3.93151    11.79454    -7.86303
    59   1    -7.86303   -11.79454    -3.93151
    60   1    -3.93151   -11.79454    -3.93151
    61   1     0.00000   -11.79454    -3.93151
    62   1     3.93151   -11.79454    -3.93151
    63   1     7.86303   -11.79454    -3.93151
    64   1   -11.79454    -7.86303    -3.93151
    65   1    -7.86303    -7.86303    -3.93151
    66   1    -3.93151    -7.86303    -3.93151
    67   1     0.00000    -7.86303    -3.93151
    68   1     3.93151    -7.86303    -3.93151
    69   1     7.86303    -7.86303    -3.93151
    70   1    11.79454    -7.86303    -3.93151
    71   1   -11.79454    -3.93151    -3.93151
    72   1    -7.86303    -3.93151    -3.93151
    73   1    -3.93151    -3.93151    -3.93151
    74   1     0.00000    -3.93151    -3.93151
    75   1     3.93151    -3.93151    -3.93151
    76   1     7.86303    -3.93151    -3.93151
    77   1    11.79454    -3.93151    -3.93151
    78   1   -11.79454     0.00000    -3.93151
    79   1    -7.86303     0.00000    -3.93151
    80   1    -3.93151     0.00000    -3.93151
    81   1     0.00000     0.00000    -3.93151
    82   1     3.93151     0.00000    -3.93151
    83   1     7.86303     0.00000    -3.93151
    84   1    11.79454     0.00000    -3.93151
    85   1   -11.79454     3.93151    -3.93151
    86   1    -7.86303     3.93151    -3.93151
    87   1    -3.93151     3.93151    -3.93151
    88   1     0.00000     3.93151    -3.93151
    89   1     3.93151     3.93151    -3.93151
    90   1     7.86303     3.93151    -3.93151
    91   1    11.79454     3.93151    -3.93151
    92   1   -11.79454     7.86303    -3.93151
    93   1    -7.86303     7.86303    -3.93151
    94   1    -3.93151     7.86303    -3.93151
    95   1     0.00000     7.86303    -3.93151
    96   1     3.93151     7.86303    -3.93151
    97   1     7.86303     7.86303    -3.93151
    98   1    11.79454     7.86303    -3.93151
    99   1    -7.86303    11.79454    -3.93151
   100   1    -3.93151    11.79454    -3.93151
   101   1     0.00000    11.79454    -3.93151
   102   1     3.93151    11.79454    -3.93151
   103   1     7.86303    11.79454    -3.93151
   104   1    -7.86303   -11.79454     0.00000
   105   1    -3.93151   -11.79454     0.00000
   106   1     0.00000   -11.79454     0.00000
   107   1     3.93151   -11.79454     0.00000
   108   1     7.86303   -11.79454     0.00000
   109   1   -11.79454    -7.86303     0.00000
   110   1    -7.86303    -7.86303     0.00000
   111   1    -3.93151    -7.86303     0.00000
   112   1     0.00000    -7.86303     0.00000
   113   1     3.93151    -7.86303     0.00000
   114   1     7.86303    -7.86303     0.00000
   115   1    11.79454    -7.86303     0.00000
   116   1   -11.79454    -3.93151     0.00000
   117   1    -7.86303    -3.93151     0.00000
   118   1    -3.93151    -3.93151     0.00000
   119   1     0.00000    -3.93151     0.00000
   120   1     3.93151    -3.93151     0.00000
   121   1     7.86303    -3.93151     0.00000
   122   1    11.79454    -3.93151     0.00000
   123   1   -11.79454     0.00000     0.00000
   124   1    -7.86303     0.00000     0.00000
   125   1    -3.93151     0.00000     0.00000
   126   1     0.00000     0.00000     0.00000
   127   1     3.93151     0.00000     0.00000
   128   1     7.86303     0.00000     0.00000
   129   1    11.79454     0.00000     0.00000
   130   1   -11.79454     3.93151     0.00000
   131   1    -7.86303     3.93151     0.00000
   132   1    -3.93151     3.93151     0.00000
   133   1     0.00000     3.93151     0.00000
   134   1     3.93151     3.93151     0.00000
   135   1     7.86303     3.93151     0.00000
   136   1    11.79454     3.93151     0.00000
   137   1   -11.79454     7.86303     0.00000
   138   1    -7.86303     7.86303     0.00000
   139   1    -3.93151     7.86303     0.00000
   140   1     0.00000     7.86303     0.00000
   141   1     3.93151     7.86303     0.00000
   142   1     7.86303     7.86303     0.00000
   143   1    11.79454     7.86303     0.00000
   144   1    -7.86303    11.79454     0.00000
   145   1    -3.93151    11.79454     0.00000
   146   1     0.00000    11.79454     0.00000
   147   1     3.93151    11.79454     0.00000
   148   1     7.86303    11.79454     0.00000
   149   1    -7.86303   -11.79454     3.93151
   150   1    -3.93151   -11.79454     3.93151
   151   1     0.00000   -11.79454     3.93151
   152   1     3.93151   -11.79454     3.93151
   153   1     7.86303   -11.79454     3.93151
   154   1   -11.79454    -7.86303     3.93151
   155   1    -7.86303    -7.86303     3.93151
   156   1    -3.93151    -7.86303     3.93151
   157   1     0.00000    -7.86303     3.93151
   158   1     3.93151    -7.86303     3.93151
   159   1     7.86303    -7.86303     3.93151
   160   1    11.79454    -7.86303     3.93151
   161   1   -11.79454    -3.93151     3.93151
   162   1    -7.86303    -3.93151     3.93151
   163   1    -3.93151    -3.93151     3.93151
   164   1     0.00000    -3.93151     3.93151
   165   1     3.93151    -3.93151     3.93151
   166   1     7.86303    -3.93151     3.93151
   167   1    11.79454    -3.93151     3.93151
   168   1   -11.79454     0.00000     3.93151
   169   1    -7.86303     0.00000     3.93151
   170   1    -3.93151     0.00000     3.93151
   171   1     0.00000     0.00000     3.93151
   172   1     3.93151     0.00000     3.93151
   173   1     7.86303     0.00000     3.93151
   174   1    11.79454     0.00000     3.93151
   175   1   -11.79454     3.93151     3.93151
   176   1    -7.86303     3.93151     3.93151
   177   1    -3.93151     3.93151     3.93151
   178   1     0.00000     3.93151     3.93151
   179   1     3.93151     3.93151     3.93151
   180   1     7.86303     3.93151     3.93151
   181   1    11.79454     3.93151     3.93151
   182   1   -11.79454     7.86303     3.93151
   183   1    -7.86303     7.86303     3.93151
   184   1    -3.93151     7.86303     3.93151
   185   1     0.00000     7.86303     3.93151
   186   1     3.93151     7.86303     3.93151
   187   1     7.86303     7.86303     3.93151
   188   1    11.79454     7.86303     3.93151
   189   1    -7.86303    11.79454     3.93151
   190   1    -3.93151    11.79454     3.93151
   191   1     0.00000    11.79454     3.93151
   192   1     3.93151    11.79454     3.93151
   193   1     7.86303    11.79454     3.93151
   194   2    -3.93151   -11.79454     7.86303
   195   2     0.00000   -11.79454     7.86303
   196   2     3.93151   -11.79454     7.86303
   197   2    -7.86303    -7.86303     7.86303
   198   2    -3.93151    -7.86303     7.86303
   199   2     0.00000    -7.86303     7.86303
   200   2     3.93151    -7.86303     7.86303
   201   2     7.86303    -7.86303     7.86303
   202   2   -11.79454    -3.93151     7.86303
   203   2    -7.86303    -3.93151     7.86303
   204   2    -3.93151    -3.93151     7.86303
   205   2     0.00000    -3.93151     7.86303
   206   2     3.93151    -3.93151     7.86303
   207   2     7.86303    -3.93151     7.86303
   208   2    11.79454    -3.93151     7.86303
   209   2   -11.79454     0.00000     7.86303
   210   2    -7.86303     0.00000     7.86303
   211   2    -3.93151     0.00000     7.86303
   212   2     0.00000     0.00000     7.86303
   213   2     3.93151     0.00000     7.86303
   214   2     7.86303     0.00000     7.86303
   215   2    11.79454     0.00000     7.86303
   216   2   -11.79454     3.93151     7.86303
   217   2    -7.86303     3.93151     7.86303
   218   2    -3.93151     3.93151     7.86303
   219   2     0.00000     3.93151     7.86303
   220   2     3.93151     3.93151     7.86303
   221   2     7.86303     3.93151     7.86303
   222   2    11.79454     3.93151     7.86303
   223   2    -7.86303     7.86303     7.86303
   224   2    -3.93151     7.86303     7.86303
   225   2     0.00000     7.86303     7.86303
   226   2     3.93151     7.86303     7.86303
   227   2     7.86303     7.86303     7.86303
   228   2    -3.93151    11.79454     7.86303
   229   2     0.00000    11.79454     7.86303
   230   2     3.93151    11.79454     7.86303
   231   2    -3.93151    -7.86303    11.79454
   232   2     0.00000    -7.86303    11.79454
   233   2     3.93151    -7.86303    11.79454
   234   2    -7.86303    -3.93151    11.79454
   235   2    -3.93151    -3.93151    11.79454
   236   2     0.00000    -3.93151    11.79454
   237   2     3.93151    -3.93151    11.79454
   238   2     7.86303    -3.93151    11.79454
   239   2    -7.86303     0.00000    11.79454
   240   2    -3.93151     0.00000    11.79454
   241   2     0.00000     0.00000    11.79454
   242   2     3.93151     0.00000    11.79454
   243   2     7.86303     0.00000    11.79454
   244   2    -7.86303     3.93151    11.79454
   245   2    -3.93151     3.93151    11.79454
   246   2     0.00000     3.93151    11.79454
   247   2     3.93151     3.93151    11.79454
   248   2     7.86303     3.93151    11.79454
   249   2    -3.93151     7.86303    11.79454
   250   2     0.00000     7.86303    11.79454
   251   2     3.93151     7.86303    11.79454
   252   2    -5.89727    -5.89727   -11.79454
   253   2    -1.96576    -5.89727   -11.79454
   254   2     1.96576    -5.89727   -11.79454
   255   2     5.89727    -5.89727   -11.79454
   256   2    -5.89727    -1.96576   -11.79454
   257   2    -1.96576    -1.96576   -11.79454
   258   2     1.96576    -1.96576   -11.79454
   259   2     5.89727    -1.96576   -11.79454
   260   2    -5.89727     1.96576   -11.79454
   261   2    -1.96576     1.96576   -11.79454
   262   2     1.96576     1.96576   -11.79454
   263   2     5.89727     1.96576   -11.79454
   264   2    -5.89727     5.89727   -11.79454
   265   2    -1.96576     5.89727   -11.79454
   266   2     1.96576     5.89727   -11.79454
   267   2     5.89727     5.89727   -11.79454
   268   2    -5.89727    -9.82878    -7.86303
   269   2    -1.96576    -9.82878    -7.86303
   270   2     1.96576    -9.82878    -7.86303
   271   2     5.89727    -9.82878    -7.86303
   272   2    -9.82878    -5.89727    -7.86303
   273   2    -5.89727    -5.89727    -7.86303
   274   2    -1.96576    -5.89727    -7.86303
   275   2     1.96576    -5.89727    -7.86303
   276   2     5.89727    -5.89727    -7.86303
   277   2     9.82878    -5.89727    -7.86303
   278   2    -9.82878    -1.96576    -7.86303
   279   2    -5.89727    -1.96576    -7.86303
   280   2    -1.96576    -1.96576    -7.86303
   281   2     1.96576    -1.96576    -7.86303
   282   2     5.89727    -1.96576    -7.86303
   283   2     9.82878    -1.96576    -7.86303
   284   2    -9.82878     1.96576    -7.86303
   285   2    -5.89727     1.96576    -7.86303
   286   2    -1.96576     1.96576    -7.86303
   287   2     1.96576     1.96576    -7.86303
   288   2     5.89727     1.96576    -7.86303
   289   2     9.82878     1.96576    -7.86303
   290   2    -9.82878     5.89727    -7.86303
   291   2    -5.89727     5.89727    -7.86303
   292   2    -1.96576     5.89727    -7.86303
   293   2     1.96576     5.89727    -7.86303
   294   2     5.89727     5.89727    -7.86303
   295   2     9.82878     5.89727    -7.86303
   296   2    -5.89727     9.82878    -7.86303
   297   2    -1.96576     9.82878    -7.86303
   298   2     1.96576     9.82878    -7.86303
   299   2     5.89727     9.82878    -7.86303
   300   1    -1.96576   -13.76030    -3.93151
   301   1     1.96576   -13.76030    -3.93151
   302   1    -9.82878    -9.82878    -3.93151
   303   1    -5.89727    -9.82878    -3.93151
   304   1    -1.96576    -9.82878    -3.93151
   305   1     1.96576    -9.82878    -3.93151
   306   1     5.89727    -9.82878    -3.93151
   307   1     9.82878    -9.82878    -3.93151
   308   1    -9.82878    -5.89727    -3.93151
   309   1    -5.89727    -5.89727    -3.93151
   310   1    -1.96576    -5.89727    -3.93151
   311   1     1.96576    -5.89727    -3.93151
   312   1     5.89727    -5.89727    -3.93151
   313   1     9.82878    -5.89727    -3.93151
   314   1   -13.76030    -1.96576    -3.93151
   315   1    -9.82878    -1.96576    -3.93151
   316   1    -5.89727    -1.96576    -3.93151
   317   1    -1.96576    -1.96576    -3.93151
   318   1     1.96576    -1.96576    -3.93151
   319   1     5.89727    -1.96576    -3.93151
   320   1     9.82878    -1.96576    -3.93151
   321   1    13.76030    -1.96576    -3.93151
   322   1   -13.76030     1.96576    -3.93151
   323   1    -9.82878     1.96576    -3.93151
   324   1    -5.89727     1.96576    -3.93151
   325   1    -1.96576     1.96576    -3.93151
   326   1     1.96576     1.96576    -3.93151
   327   1     5.89727     1.96576    -3.93151
   328   1     9.82878     1.96576    -3.93151
   329   1    13.76030     1.96576    -3.93151
   330   1    -9.82878     5.89727    -3.93151
   331   1    -5.89727     5.89727    -3.93151
   332   1    -1.96576     5.89727    -3.93151
   333   1     1.96576     5.89727    -3.93151
   334   1     5.89727     5.89727    -3.93151
   335   1     9.82878     5.89727    -3.93151
   336   1    -9.82878     9.82878    -3.93151
   337   1    -5.89727     9.82878    -3.93151
   338   1    -1.96576     9.82878    -3.93151
   339   1     1.96576     9.82878    -3.93151
   340   1     5.89727     9.82878    -3.93151
   341   1     9.82878     9.82878    -3.93151
   342   1    -1.96576    13.76030    -3.93151
   343   1     1.96576    13.76030    -3.93151
   344   1    -5.89727   -13.76030     0.00000
   345   1    -1.96576   -13.76030     0.00000
   346   1     1.96576   -13.76030     0.00000
   347   1     5.89727   -13.76030     0.00000
   348   1    -9.82878    -9.82878     0.00000
   349   1    -5.89727    -9.82878     0.00000
   350   1    -1.96576    -9.82878     0.00000
   351   1     1.96576    -9.82878     0.00000
   352   1     5.89727    -9.82878     0.00000
   353   1     9.82878    -9.82878     0.00000
   354   1   -13.76030    -5.89727     0.00000
   355   1    -9.82878    -5.89727     0.00000
   356   1    -5.89727    -5.89727     0.00000
   357   1    -1.96576    -5.89727     0.00000
   358   1     1.96576    -5.89727     0.00000
   359   1     5.89727    -5.89727     0.00000
   360   1     9.82878    -5.89727     0.00000
   361   1    13.76030    -5.89727     0.00000
   362   1   -13.76030    -1.96576     0.00000
   363   1    -9.82878    -1.96576     0.00000
   364   1    -5.89727    -1.96576     0.00000
   365   1    -1.96576    -1.96576     0.00000
   366   1     1.96576    -1.96576     0.00000
   367   1     5.89727    -1.96576     0.00000
   368   1     9.82878    -1.96576     0.00000
   369   1    13.76030    -1.96576     0.00000
   370   1   -13.76030     1.96576     0.00000
   371   1    -9.82878     1.96576     0.00000
   372   1    -5.89727     1.96576     0.00000
   373   1    -1.96576     1.96576     0.00000
   374   1     1.96576     1.96576     0.00000
   375   1     5.89727     1.96576     0.00000
   376   1     9.82878     1.96576     0.00000
   377   1    13.76030     1.96576     0.00000
   378   1   -13.76030     5.89727     0.00000
   379   1    -9.82878     5.89727     0.00000
   380   1    -5.89727     5.89727     0.00000
   381   1    -1.96576     5.89727     0.00000
   382   1     1.96576     5.89727     0.00000
   383   1     5.89727     5.89727     0.00000
   384   1     9.82878     5.89727     0.00000
   385   1    13.76030     5.89727     0.00000
   386   1    -9.82878     9.82878     0.00000
   387   1    -5.89727     9.82878     0.00000
   388   1    -1.96576     9.82878     0.00000
   389   1     1.96576     9.82878     0.00000
   390   1     5.89727     9.82878     0.00000
   391   1     9.82878     9.82878     0.00000
   392   1    -5.89727    13.76030     0.00000
   393   1    -1.96576    13.76030     0.00000
   394   1     1.96576    13.76030     0.00000
   395   1     5.89727    13.76030     0.00000
   396   1    -1.96576   -13.76030     3.93151
   397   1     1.96576   -13.76030     3.93151
   398   1    -9.82878    -9.82878     3.93151
   399   1    -5.89727    -9.82878     3.93151
   400   1    -1.96576    -9.82878     3.93151
   401   1     1.96576    -9.82878     3.93151
   402   1     5.89727    -9.82878     3.93151
   403   1     9.82878    -9.82878     3.93151
   404   1    -9.82878    -5.89727     3.93151
   405   1    -5.89727    -5.89727     3.93151
   406   1    -1.96576    -5.89727     3.93151
   407   1     1.96576    -5.89727     3.93151
   408   1     5.89727    -5.89727     3.93151
   409   1     9.82878    -5.89727     3.93151
   410   1   -13.76030    -1.96576     3.93151
   411   1    -9.82878    -1.96576     3.93151
   412   1    -5.89727    -1.96576     3.93151
   413   1    -1.96576    -1.96576     3.93151
   414   1     1.96576    -1.96576     3.93151
   415   1     5.89727    -1.96576     3.93151
   416   1     9.82878    -1.96576     3.93151
   417   1    13.76030    -1.96576     3.93151
   418   1   -13.76030     1.96576     3.93151
   419   1    -9.82878     1.96576     3.93151
   420   1    -5.89727     1.96576     3.93151
   421   1    -1.96576     1.96576     3.93151
   422   1     1.96576     1.96576     3.93151
   423   1     5.89727     1.96576     3.93151
   424   1     9.82878     1.96576     3.93151
   425   1    13.76030     1.96576     3.93151
   426   1    -9.82878     5.89727     3.93151
   427   1    -5.89727     5.89727     3.93151
   428   1    -1.96576     5.89727     3.93151
   429   1     1.96576     5.89727     3.93151
   430   1     5.89727     5.89727     3.93151
   431   1     9.82878     5.89727     3.93151
   432   1    -9.82878     9.82878     3.93151
   433   1    -5.89727     9.82878     3.93151
   434   1    -1.96576     9.82878     3.93151
   435   1     1.96576     9.82878     3.93151
   436   1     5.89727     9.82878     3.93151
   437   1     9.82878     9.82878     3.93151
   438   1    -1.96576    13.76030     3.93151
   439   1     1.96576    13.76030     3.93151
   440   2    -5.89727    -9.82878     7.86303
   441   2    -1.96576    -9.82878     7.86303
   442   2     1.96576    -9.82878     7.86303
   443   2     5.89727    -9.82878     7.86303
   444   2    -9.82878    -5.89727     7.86303
   445   2    -5.89727    -5.89727     7.86303
   446   2    -1.96576    -5.89727     7.86303
   447   2     1.96576    -5.89727     7.86303
   448   2     5.89727    -5.89727     7.86303
   449   2     9.82878    -5.89727     7.86303
   450   2    -9.82878    -1.96576     7.86303
   451   2    -5.89727    -1.96576     7.86303
   452   2    -1.96576    -1.96576     7.86303
   453   2     1.96576    -1.96576     7.86303
   454   2     5.89727    -1.96576     7.86303
   455   2     9.82878    -1.96576     7.86303
   456   2    -9.82878     1.96576     7.86303
   457   2    -5.89727     1.96576     7.86303
   458   2    -1.96576     1.96576     7.86303
   459   2     1.96576     1.96576     7.86303
   460   2     5.89727     1.96576     7.86303
   461   2     9.82878     1.96576     7.86303
   462   2    -9.82878     5.89727     7.86303
   463   2    -5.89727     5.89727     7.86303
   464   2    -1.96576     5.89727     7.86303
   465   2     1.96576     5.89727     7.86303
   466   2     5.89727     5.89727     7.86303
   467   2     9.82878     5.89727     7.86303
   468   2    -5.89727     9.82878     7.86303
   469   2    -1.96576     9.82878     7.86303
   470   2     1.96576     9.82878     7.86303
   471   2     5.89727     9.82878     7.86303
   472   2    -5.89727    -5.89727    11.79454
   473   2    -1.96576    -5.89727    11.79454
   474   2     1.96576    -5.89727    11.79454
   475   2     5.89727    -5.89727    11.79454
   476   2    -5.89727    -1.96576    11.79454
   477   2    -1.96576    -1.96576    11.79454
   478   2     1.96576    -1.96576    11.79454
   479   2     5.89727    -1.96576    11.79454
   480   2    -5.89727     1.96576    11.79454
   481   2    -1.96576     1.96576    11.79454
   482   2     1.96576     1.96576    11.79454
   483   2     5.89727     1.96576    11.79454
   484   2    -5.89727     5.89727    11.79454
   485   2    -1.96576     5.89727    11.79454
   486   2     1.96576     5.89727    11.79454
   487   2     5.89727     5.89727    11.79454
   488   1    -5.89727   -11.79454    -5.89727
   489   1    -1.96576   -11.79454    -5.89727
   490   1     1.96576   -11.79454    -5.89727
   491   1     5.89727   -11.79454    -5.89727
   492   1    -5.89727   -11.79454    -1.96576
   493   1    -1.96576   -11.79454    -1.96576
   494   1     1.96576   -11.79454    -1.96576
   495   1     5.89727   -11.79454    -1.96576
   496   1    -5.89727   -11.79454     1.96576
   497   1    -1.96576   -11.79454     1.96576
   498   1     1.96576   -11.79454     1.96576
   499   1     5.89727   -11.79454     1.96576
   500   1    -5.89727   -11.79454     5.89727
   501   1    -1.96576   -11.79454     5.89727
   502   1     1.96576   -11.79454     5.89727
   503   1     5.89727   -11.79454     5.89727
   504   2    -5.89727    -7.86303    -9.82878
   505   2    -1.96576    -7.86303    -9.82878
   506   2     1.96576    -7.86303    -9.82878
   507   2     5.89727    -7.86303    -9.82878
   508   1    -9.82878    -7.86303    -5.89727
   509   1    -5.89727    -7.86303    -5.89727
   510   1    -1.96576    -7.86303    -5.89727
   511   1     1.96576    -7.86303    -5.89727
   512   1     5.89727    -7.86303    -5.89727
   513   1     9.82878    -7.86303    -5.89727
   514   1    -9.82878    -7.86303    -1.96576
   515   1    -5.89727    -7.86303    -1.96576
   516   1    -1.96576    -7.86303    -1.96576
   517   1     1.96576    -7.86303    -1.96576
   518   1     5.89727    -7.86303    -1.96576
   519   1     9.82878    -7.86303    -1.96576
   520   1    -9.82878    -7.86303     1.96576
   521   1    -5.89727    -7.86303     1.96576
   522   1    -1.96576    -7.86303     1.96576
   523   1     1.96576    -7.86303     1.96576
   524   1     5.89727    -7.86303     1.96576
   525   1     9.82878    -7.86303     1.96576
   526   1    -9.82878    -7.86303     5.89727
   527   1    -5.89727    -7.86303     5.89727
   528   1    -1.96576    -7.86303     5.89727
   529   1     1.96576    -7.86303     5.89727
   530   1     5.89727    -7.86303     5.89727
   531   1     9.82878    -7.86303     5.89727
   532   2    -5.89727    -7.86303     9.82878
   533   2    -1.96576    -7.86303     9.82878
   534   2     1.96576    -7.86303     9.82878
   535   2     5.89727    -7.86303     9.82878
   536   2    -1.96576    -3.93151   -13.76030
   537   2     1.96576    -3.93151   -13.76030
   538   2    -9.82878    -3.93151    -9.82878
   539   2    -5.89727    -3.93151    -9.82878
   540   2    -1.96576    -3.93151    -9.82878
   541   2     1.96576    -3.93151    -9.82878
   542   2     5.89727    -3.93151    -9.82878
   543   2     9.82878    -3.93151    -9.82878
   544   1    -9.82878    -3.93151    -5.89727
   545   1    -5.89727    -3.93151    -5.89727
   546   1    -1.96576    -3.93151    -5.89727
   547   1     1.96576    -3.93151    -5.89727
   548   1     5.89727    -3.93151    -5.89727
   549   1     9.82878    -3.93151    -5.89727
   550   1   -13.76030    -3.93151    -1.96576
   551   1    -9.82878    -3.93151    -1.96576
   552   1    -5.89727    -3.93151    -1.96576
   553   1    -1.96576    -3.93151    -1.96576
   554   1     1.96576    -3.93151    -1.96576
   555   1     5.89727    -3.93151    -1.96576
   556   1     9.82878    -3.93151    -1.96576
   557   1    13.76030    -3.93151    -1.96576
   558   1   -13.76030    -3.93151     1.96576
   559   1    -9.82878    -3.93151     1.96576
   560   1    -5.89727    -3.93151     1.96576
   561   1    -1.96576    -3.93151     1.96576
   562   1     1.96576    -3.93151     1.96576
   563   1     5.89727    -3.93151     1.96576
   564   1     9.82878    -3.93151     1.96576
   565   1    13.76030    -3.93151     1.96576
   566   1    -9.82878    -3.93151     5.89727
   567   1    -5.89727    -3.93151     5.89727
   568   1    -1.96576    -3.93151     5.89727
   569   1     1.96576    -3.93151     5.89727
   570   1     5.89727    -3.93151     5.89727
   571   1     9.82878    -3.93151     5.89727
   572   2    -9.82878    -3.93151     9.82878
   573   2    -5.89727    -3.93151     9.82878
   574   2    -1.96576    -3.93151     9.82878
   575   2     1.96576    -3.93151     9.82878
   576   2     5.89727    -3.93151     9.82878
   577   2     9.82878    -3.93151     9.82878
   578   2    -1.96576    -3.93151    13.76030
   579   2     1.96576    -3.93151    13.76030
   580   2    -5.89727     0.00000   -13.76030
   581   2    -1.96576     0.00000   -13.76030
   582   2     1.96576     0.00000   -13.76030
   583   2     5.89727     0.00000   -13.76030
   584   2    -9.82878     0.00000    -9.82878
   585   2    -5.89727     0.00000    -9.82878
   586   2    -1.96576     0.00000    -9.82878
   587   2     1.96576     0.00000    -9.82878
   588   2     5.89727     0.00000    -9.82878
   589   2     9.82878     0.00000    -9.82878
   590   1   -13.76030     0.00000    -5.89727
   591   1    -9.82878     0.00000    -5.89727
   592   1    -5.89727     0.00000    -5.89727
   593   1    -1.96576     0.00000    -5.89727
   594   1     1.96576     0.00000    -5.89727
   595   1     5.89727     0.00000    -5.89727
   596   1     9.82878     0.00000    -5.89727
   597   1    13.76030     0.00000    -5.89727
   598   1   -13.76030     0.00000    -1.96576
   599   1    -9.82878     0.00000    -1.96576
   600   1    -5.89727     0.00000    -1.96576
   601   1    -1.96576     0.00000    -1.96576
   602   1     1.96576     0.00000    -1.96576
   603   1     5.89727     0.00000    -1.96576
   604   1     9.82878     0.00000    -1.96576
   605   1    13.76030     0.00000    -1.96576
   606   1   -13.76030     0.00000     1.96576
   607   1    -9.82878     0.00000     1.96576
   608   1    -5.89727     0.00000     1.96576
   609   1    -1.96576     0.00000     1.96576
   610   1     1.96576     0.00000     1.96576
   611   1     5.89727     0.00000     1.96576
   612   1     9.82878     0.00000     1.96576
   613   1    13.76030     0.00000     1.96576
   614   1   -13.76030     0.00000     5.89727
   615   1    -9.82878     0.00000     5.89727
   616   1    -5.89727     0.00000     5.89727
   617   1    -1.96576     0.00000     5.89727
   618   1     1.96576     0.00000     5.89727
   619   1     5.89727     0.00000     5.89727
   620   1     9.82878     0.00000     5.89727
   621   1    13.76030     0.00000     5.89727
   622   2    -9.82878     0.00000     9.82878
   623   2    -5.89727     0.00000     9.82878
   624   2    -1.96576     0.00000     9.82878
   625   2     1.96576     0.00000     9.82878
   626   2     5.89727     0.00000     9.82878
   627   2     9.82878     0.00000     9.82878
   628   2    -5.89727     0.00000    13.76030
   629   2    -1.96576     0.00000    13.76030
   630   2     1.96576     0.00000    13.76030
   631   2     5.89727     0.00000    13.76030
   632   2    -1.96576     3.93151   -13.76030
   633   2     1.96576     3.93151   -13.76030
   634   2    -9.82878     3.93151    -9.82878