LAMMPS DATA FOR MEAM SIMULATION

   1289   atoms
      2   atom types

  -24.09   24.09   xlo xhi
  -24.09   24.09   ylo yhi
  -24.09   24.09   zlo zhi

 Atoms

     1   1    -3.52139    -3.52139   -14.08557
     2   1     0.00000    -3.52139   -14.08557
     3   1     3.52139    -3.52139   -14.08557
     4   1    -3.52139     0.00000   -14.08557
     5   1     0.00000     0.00000   -14.08557
     6   1     3.52139     0.00000   -14.08557
     7   1    -3.52139     3.52139   -14.08557
     8   1     0.00000     3.52139   -14.08557
     9   1     3.52139     3.52139   -14.08557
    10   1     0.00000   -10.56418   -10.56418
    11   1    -7.04278    -7.04278   -10.56418
    12   1    -3.52139    -7.04278   -10.56418
    13   1     0.00000    -7.04278   -10.56418
    14   1     3.52139    -7.04278   -10.56418
    15   1     7.04278    -7.04278   -10.56418
    16   1    -7.04278    -3.52139   -10.56418
    17   1    -3.52139    -3.52139   -10.56418
    18   1     0.00000    -3.52139   -10.56418
    19   1     3.52139    -3.52139   -10.56418
    20   1     7.04278    -3.52139   -10.56418
    21   1   -10.56418     0.00000   -10.56418
    22   1    -7.04278     0.00000   -10.56418
    23   1    -3.52139     0.00000   -10.56418
    24   1     0.00000     0.00000   -10.56418
    25   1     3.52139     0.00000   -10.56418
    26   1     7.04278     0.00000   -10.56418
    27   1    10.56418     0.00000   -10.56418
    28   1    -7.04278     3.52139   -10.56418
    29   1    -3.52139     3.52139   -10.56418
    30   1     0.00000     3.52139   -10.56418
    31   1     3.52139     3.52139   -10.56418
    32   1     7.04278     3.52139   -10.56418
    33   1    -7.04278     7.04278   -10.56418
    34   1    -3.52139     7.04278   -10.56418
    35   1     0.00000     7.04278   -10.56418
    36   1     3.52139     7.04278   -10.56418
    37   1     7.04278     7.04278   -10.56418
    38   1     0.00000    10.56418   -10.56418
    39   1    -7.04278   -10.56418    -7.04278
    40   1    -3.52139   -10.56418    -7.04278
    41   1     0.00000   -10.56418    -7.04278
    42   1     3.52139   -10.56418    -7.04278
    43   1     7.04278   -10.56418    -7.04278
    44   1   -10.56418    -7.04278    -7.04278
    45   1    -7.04278    -7.04278    -7.04278
    46   1    -3.52139    -7.04278    -7.04278
    47   1     0.00000    -7.04278    -7.04278
    48   1     3.52139    -7.04278    -7.04278
    49   1     7.04278    -7.04278    -7.04278
    50   1    10.56418    -7.04278    -7.04278
    51   1   -10.56418    -3.52139    -7.04278
    52   1    -7.04278    -3.52139    -7.04278
    53   1    -3.52139    -3.52139    -7.04278
    54   1     0.00000    -3.52139    -7.04278
    55   1     3.52139    -3.52139    -7.04278
    56   1     7.04278    -3.52139    -7.04278
    57   1    10.56418    -3.52139    -7.04278
    58   1   -10.56418     0.00000    -7.04278
    59   1    -7.04278     0.00000    -7.04278
    60   1    -3.52139     0.00000    -7.04278
    61   1     0.00000     0.00000    -7.04278
    62   1     3.52139     0.00000    -7.04278
    63   1     7.04278     0.00000    -7.04278
    64   1    10.56418     0.00000    -7.04278
    65   1   -10.56418     3.52139    -7.04278
    66   1    -7.04278     3.52139    -7.04278
    67   1    -3.52139     3.52139    -7.04278
    68   1     0.00000     3.52139    -7.04278
    69   1     3.52139     3.52139    -7.04278
    70   1     7.04278     3.52139    -7.04278
    71   1    10.56418     3.52139    -7.04278
    72   1   -10.56418     7.04278    -7.04278
    73   1    -7.04278     7.04278    -7.04278
    74   1    -3.52139     7.04278    -7.04278
    75   1     0.00000     7.04278    -7.04278
    76   1     3.52139     7.04278    -7.04278
    77   1     7.04278     7.04278    -7.04278
    78   1    10.56418     7.04278    -7.04278
    79   1    -7.04278    10.56418    -7.04278
    80   1    -3.52139    10.56418    -7.04278
    81   1     0.00000    10.56418    -7.04278
    82   1     3.52139    10.56418    -7.04278
    83   1     7.04278    10.56418    -7.04278
    84   1    -3.52139   -14.08557    -3.52139
    85   1     0.00000   -14.08557    -3.52139
    86   1     3.52139   -14.08557    -3.52139
    87   1    -7.04278   -10.56418    -3.52139
    88   1    -3.52139   -10.56418    -3.52139
    89   1     0.00000   -10.56418    -3.52139
    90   1     3.52139   -10.56418    -3.52139
    91   1     7.04278   -10.56418    -3.52139
    92   1   -10.56418    -7.04278    -3.52139
    93   1    -7.04278    -7.04278    -3.52139
    94   1    -3.52139    -7.04278    -3.52139
    95   1     0.00000    -7.04278    -3.52139
    96   1     3.52139    -7.04278    -3.52139
    97   1     7.04278    -7.04278    -3.52139
    98   1    10.56418    -7.04278    -3.52139
    99   1   -14.08557    -3.52139    -3.52139
   100   1   -10.56418    -3.52139    -3.52139
   101   1    -7.04278    -3.52139    -3.52139
   102   1    -3.52139    -3.52139    -3.52139
   103   1     0.00000    -3.52139    -3.52139
   104   1     3.52139    -3.52139    -3.52139
   105   1     7.04278    -3.52139    -3.52139
   106   1    10.56418    -3.52139    -3.52139
   107   1    14.08557    -3.52139    -3.52139
   108   1   -14.08557     0.00000    -3.52139
   109   1   -10.56418     0.00000    -3.52139
   110   1    -7.04278     0.00000    -3.52139
   111   1    -3.52139     0.00000    -3.52139
   112   1     0.00000     0.00000    -3.52139
   113   1     3.52139     0.00000    -3.52139
   114   1     7.04278     0.00000    -3.52139
   115   1    10.56418     0.00000    -3.52139
   116   1    14.08557     0.00000    -3.52139
   117   1   -14.08557     3.52139    -3.52139
   118   1   -10.56418     3.52139    -3.52139
   119   1    -7.04278     3.52139    -3.52139
   120   1    -3.52139     3.52139    -3.52139
   121   1     0.00000     3.52139    -3.52139
   122   1     3.52139     3.52139    -3.52139
   123   1     7.04278     3.52139    -3.52139
   124   1    10.56418     3.52139    -3.52139
   125   1    14.08557     3.52139    -3.52139
   126   1   -10.56418     7.04278    -3.52139
   127   1    -7.04278     7.04278    -3.52139
   128   1    -3.52139     7.04278    -3.52139
   129   1     0.00000     7.04278    -3.52139
   130   1     3.52139     7.04278    -3.52139
   131   1     7.04278     7.04278    -3.52139
   132   1    10.56418     7.04278    -3.52139
   133   1    -7.04278    10.56418    -3.52139
   134   1    -3.52139    10.56418    -3.52139
   135   1     0.00000    10.56418    -3.52139
   136   1     3.52139    10.56418    -3.52139
   137   1     7.04278    10.56418    -3.52139
   138   1    -3.52139    14.08557    -3.52139
   139   1     0.00000    14.08557    -3.52139
   140   1     3.52139    14.08557    -3.52139
   141   1    -3.52139   -14.08557     0.00000
   142   1     0.00000   -14.08557     0.00000
   143   1     3.52139   -14.08557     0.00000
   144   1   -10.56418   -10.56418     0.00000
   145   1    -7.04278   -10.56418     0.00000
   146   1    -3.52139   -10.56418     0.00000
   147   1     0.00000   -10.56418     0.00000
   148   1     3.52139   -10.56418     0.00000
   149   1     7.04278   -10.56418     0.00000
   150   1    10.56418   -10.56418     0.00000
   151   1   -10.56418    -7.04278     0.00000
   152   1    -7.04278    -7.04278     0.00000
   153   1    -3.52139    -7.04278     0.00000
   154   1     0.00000    -7.04278     0.00000
   155   1     3.52139    -7.04278     0.00000
   156   1     7.04278    -7.04278     0.00000
   157   1    10.56418    -7.04278     0.00000
   158   1   -14.08557    -3.52139     0.00000
   159   1   -10.56418    -3.52139     0.00000
   160   1    -7.04278    -3.52139     0.00000
   161   1    -3.52139    -3.52139     0.00000
   162   1     0.00000    -3.52139     0.00000
   163   1     3.52139    -3.52139     0.00000
   164   1     7.04278    -3.52139     0.00000
   165   1    10.56418    -3.52139     0.00000
   166   1    14.08557    -3.52139     0.00000
   167   1   -14.08557     0.00000     0.00000
   168   1   -10.56418     0.00000     0.00000
   169   1    -7.04278     0.00000     0.00000
   170   1    -3.52139     0.00000     0.00000
   171   1     0.00000     0.00000     0.00000
   172   1     3.52139     0.00000     0.00000
   173   1     7.04278     0.00000     0.00000
   174   1    10.56418     0.00000     0.00000
   175   1    14.08557     0.00000     0.00000
   176   1   -14.08557     3.52139     0.00000
   177   1   -10.56418     3.52139     0.00000
   178   1    -7.04278     3.52139     0.00000
   179   1    -3.52139     3.52139     0.00000
   180   1     0.00000     3.52139     0.00000
   181   1     3.52139     3.52139     0.00000
   182   1     7.04278     3.52139     0.00000
   183   1    10.56418     3.52139     0.00000
   184   1    14.08557     3.52139     0.00000
   185   1   -10.56418     7.04278     0.00000
   186   1    -7.04278     7.04278     0.00000
   187   1    -3.52139     7.04278     0.00000
   188   1     0.00000     7.04278     0.00000
   189   1     3.52139     7.04278     0.00000
   190   1     7.04278     7.04278     0.00000
   191   1    10.56418     7.04278     0.00000
   192   1   -10.56418    10.56418     0.00000
   193   1    -7.04278    10.56418     0.00000
   194   1    -3.52139    10.56418     0.00000
   195   1     0.00000    10.56418     0.00000
   196   1     3.52139    10.56418     0.00000
   197   1     7.04278    10.56418     0.00000
   198   1    10.56418    10.56418     0.00000
   199   1    -3.52139    14.08557     0.00000
   200   1     0.00000    14.08557     0.00000
   201   1     3.52139    14.08557     0.00000
   202   1    -3.52139   -14.08557     3.52139
   203   1     0.00000   -14.08557     3.52139
   204   1     3.52139   -14.08557     3.52139
   205   1    -7.04278   -10.56418     3.52139
   206   1    -3.52139   -10.56418     3.52139
   207   1     0.00000   -10.56418     3.52139
   208   1     3.52139   -10.56418     3.52139
   209   1     7.04278   -10.56418     3.52139
   210   1   -10.56418    -7.04278     3.52139
   211   1    -7.04278    -7.04278     3.52139
   212   1    -3.52139    -7.04278     3.52139
   213   1     0.00000    -7.04278     3.52139
   214   1     3.52139    -7.04278     3.52139
   215   1     7.04278    -7.04278     3.52139
   216   1    10.56418    -7.04278     3.52139
   217   1   -14.08557    -3.52139     3.52139
   218   1   -10.56418    -3.52139     3.52139
   219   1    -7.04278    -3.52139     3.52139
   220   1    -3.52139    -3.52139     3.52139
   221   1     0.00000    -3.52139     3.52139
   222   1     3.52139    -3.52139     3.52139
   223   1     7.04278    -3.52139     3.52139
   224   1    10.56418    -3.52139     3.52139
   225   1    14.08557    -3.52139     3.52139
   226   1   -14.08557     0.00000     3.52139
   227   1   -10.56418     0.00000     3.52139
   228   1    -7.04278     0.00000     3.52139
   229   1    -3.52139     0.00000     3.52139
   230   1     0.00000     0.00000     3.52139
   231   1     3.52139     0.00000     3.52139
   232   1     7.04278     0.00000     3.52139
   233   1    10.56418     0.00000     3.52139
   234   1    14.08557     0.00000     3.52139
   235   1   -14.08557     3.52139     3.52139
   236   1   -10.56418     3.52139     3.52139
   237   1    -7.04278     3.52139     3.52139
   238   1    -3.52139     3.52139     3.52139
   239   1     0.00000     3.52139     3.52139
   240   1     3.52139     3.52139     3.52139
   241   1     7.04278     3.52139     3.52139
   242   1    10.56418     3.52139     3.52139
   243   1    14.08557     3.52139     3.52139
   244   1   -10.56418     7.04278     3.52139
   245   1    -7.04278     7.04278     3.52139
   246   1    -3.52139     7.04278     3.52139
   247   1     0.00000     7.04278     3.52139
   248   1     3.52139     7.04278     3.52139
   249   1     7.04278     7.04278     3.52139
   250   1    10.56418     7.04278     3.52139
   251   1    -7.04278    10.56418     3.52139
   252   1    -3.52139    10.56418     3.52139
   253   1     0.00000    10.56418     3.52139
   254   1     3.52139    10.56418     3.52139
   255   1     7.04278    10.56418     3.52139
   256   1    -3.52139    14.08557     3.52139
   257   1     0.00000    14.08557     3.52139
   258   1     3.52139    14.08557     3.52139
   259   1    -7.04278   -10.56418     7.04278
   260   1    -3.52139   -10.56418     7.04278
   261   1     0.00000   -10.56418     7.04278
   262   1     3.52139   -10.56418     7.04278
   263   1     7.04278   -10.56418     7.04278
   264   1   -10.56418    -7.04278     7.04278
   265   1    -7.04278    -7.04278     7.04278
   266   1    -3.52139    -7.04278     7.04278
   267   1     0.00000    -7.04278     7.04278
   268   1     3.52139    -7.04278     7.04278
   269   1     7.04278    -7.04278     7.04278
   270   1    10.56418    -7.04278     7.04278
   271   1   -10.56418    -3.52139     7.04278
   272   1    -7.04278    -3.52139     7.04278
   273   1    -3.52139    -3.52139     7.04278
   274   1     0.00000    -3.52139     7.04278
   275   1     3.52139    -3.52139     7.04278
   276   1     7.04278    -3.52139     7.04278
   277   1    10.56418    -3.52139     7.04278
   278   1   -10.56418     0.00000     7.04278
   279   1    -7.04278     0.00000     7.04278
   280   1    -3.52139     0.00000     7.04278
   281   1     0.00000     0.00000     7.04278
   282   1     3.52139     0.00000     7.04278
   283   1     7.04278     0.00000     7.04278
   284   1    10.56418     0.00000     7.04278
   285   1   -10.56418     3.52139     7.04278
   286   1    -7.04278     3.52139     7.04278
   287   1    -3.52139     3.52139     7.04278
   288   1     0.00000     3.52139     7.04278
   289   1     3.52139     3.52139     7.04278
   290   1     7.04278     3.52139     7.04278
   291   1    10.56418     3.52139     7.04278
   292   1   -10.56418     7.04278     7.04278
   293   1    -7.04278     7.04278     7.04278
   294   1    -3.52139     7.04278     7.04278
   295   1     0.00000     7.04278     7.04278
   296   1     3.52139     7.04278     7.04278
   297   1     7.04278     7.04278     7.04278
   298   1    10.56418     7.04278     7.04278
   299   1    -7.04278    10.56418     7.04278
   300   1    -3.52139    10.56418     7.04278
   301   1     0.00000    10.56418     7.04278
   302   1     3.52139    10.56418     7.04278
   303   1     7.04278    10.56418     7.04278
   304   1     0.00000   -10.56418    10.56418
   305   1    -7.04278    -7.04278    10.56418
   306   1    -3.52139    -7.04278    10.56418
   307   1     0.00000    -7.04278    10.56418
   308   1     3.52139    -7.04278    10.56418
   309   1     7.04278    -7.04278    10.56418
   310   1    -7.04278    -3.52139    10.56418
   311   1    -3.52139    -3.52139    10.56418
   312   1     0.00000    -3.52139    10.56418
   313   1     3.52139    -3.52139    10.56418
   314   1     7.04278    -3.52139    10.56418
   315   1   -10.56418     0.00000    10.56418
   316   1    -7.04278     0.00000    10.56418
   317   1    -3.52139     0.00000    10.56418
   318   1     0.00000     0.00000    10.56418
   319   1     3.52139     0.00000    10.56418
   320   1     7.04278     0.00000    10.56418
   321   1    10.56418     0.00000    10.56418
   322   1    -7.04278     3.52139    10.56418
   323   1    -3.52139     3.52139    10.56418
   324   1     0.00000     3.52139    10.56418
   325   1     3.52139     3.52139    10.56418
   326   1     7.04278     3.52139    10.56418
   327   1    -7.04278     7.04278    10.56418
   328   1    -3.52139     7.04278    10.56418
   329   1     0.00000     7.04278    10.56418
   330   1     3.52139     7.04278    10.56418
   331   1     7.04278     7.04278    10.56418
   332   1     0.00000    10.56418    10.56418
   333   1    -3.52139    -3.52139    14.08557
   334   1     0.00000    -3.52139    14.08557
   335   1     3.52139    -3.52139    14.08557
   336   1    -3.52139     0.00000    14.08557
   337   1     0.00000     0.00000    14.08557
   338   1     3.52139     0.00000    14.08557
   339   1    -3.52139     3.52139    14.08557
   340   1     0.00000     3.52139    14.08557
   341   1     3.52139     3.52139    14.08557
   342   1    -1.76070    -1.76070   -14.08557
   343   1     1.76070    -1.76070   -14.08557
   344   1    -1.76070     1.76070   -14.08557
   345   1     1.76070     1.76070   -14.08557
   346   1    -5.28209    -8.80348   -10.56418
   347   1    -1.76070    -8.80348   -10.56418
   348   1     1.76070    -8.80348   -10.56418
   349   1     5.28209    -8.80348   -10.56418
   350   1    -8.80348    -5.28209   -10.56418
   351   1    -5.28209    -5.28209   -10.56418
   352   1    -1.76070    -5.28209   -10.56418
   353   1     1.76070    -5.28209   -10.56418
   354   1     5.28209    -5.28209   -10.56418
   355   1     8.80348    -5.28209   -10.56418
   356   1    -8.80348    -1.76070   -10.56418
   357   1    -5.28209    -1.76070   -10.56418
   358   1    -1.76070    -1.76070   -10.56418
   359   1     1.76070    -1.76070   -10.56418
   360   1     5.28209    -1.76070   -10.56418
   361   1     8.80348    -1.76070   -10.56418
   362   1    -8.80348     1.76070   -10.56418
   363   1    -5.28209     1.76070   -10.56418
   364   1    -1.76070     1.76070   -10.56418
   365   1     1.76070     1.76070   -10.56418
   366   1     5.28209     1.76070   -10.56418
   367   1     8.80348     1.76070   -10.56418
   368   1    -8.80348     5.28209   -10.56418
   369   1    -5.28209     5.28209   -10.56418
   370   1    -1.76070     5.28209   -10.56418
   371   1     1.76070     5.28209   -10.56418
   372   1     5.28209     5.28209   -10.56418
   373   1     8.80348     5.28209   -10.56418
   374   1    -5.28209     8.80348   -10.56418
   375   1    -1.76070     8.80348   -10.56418
   376   1     1.76070     8.80348   -10.56418
   377   1     5.28209     8.80348   -10.56418
   378   1    -1.76070   -12.32487    -7.04278
   379   1     1.76070   -12.32487    -7.04278
   380   1    -8.80348    -8.80348    -7.04278
   381   1    -5.28209    -8.80348    -7.04278
   382   1    -1.76070    -8.80348    -7.04278
   383   1     1.76070    -8.80348    -7.04278
   384   1     5.28209    -8.80348    -7.04278
   385   1     8.80348    -8.80348    -7.04278
   386   1    -8.80348    -5.28209    -7.04278
   387   1    -5.28209    -5.28209    -7.04278
   388   1    -1.76070    -5.28209    -7.04278
   389   1     1.76070    -5.28209    -7.04278
   390   1     5.28209    -5.28209    -7.04278
   391   1     8.80348    -5.28209    -7.04278
   392   1   -12.32487    -1.76070    -7.04278
   393   1    -8.80348    -1.76070    -7.04278
   394   1    -5.28209    -1.76070    -7.04278
   395   1    -1.76070    -1.76070    -7.04278
   396   1     1.76070    -1.76070    -7.04278
   397   1     5.28209    -1.76070    -7.04278
   398   1     8.80348    -1.76070    -7.04278
   399   1    12.32487    -1.76070    -7.04278
   400   1   -12.32487     1.76070    -7.04278
   401   1    -8.80348     1.76070    -7.04278
   402   1    -5.28209     1.76070    -7.04278
   403   1    -1.76070     1.76070    -7.04278
   404   1     1.76070     1.76070    -7.04278
   405   1     5.28209     1.76070    -7.04278
   406   1     8.80348     1.76070    -7.04278
   407   1    12.32487     1.76070    -7.04278
   408   1    -8.80348     5.28209    -7.04278
   409   1    -5.28209     5.28209    -7.04278
   410   1    -1.76070     5.28209    -7.04278
   411   1     1.76070     5.28209    -7.04278
   412   1     5.28209     5.28209    -7.04278
   413   1     8.80348     5.28209    -7.04278
   414   1    -8.80348     8.80348    -7.04278
   415   1    -5.28209     8.80348    -7.04278
   416   1    -1.76070     8.80348    -7.04278
   417   1     1.76070     8.80348    -7.04278
   418   1     5.28209     8.80348    -7.04278
   419   1     8.80348     8.80348    -7.04278
   420   1    -1.76070    12.32487    -7.04278
   421   1     1.76070    12.32487    -7.04278
   422   1    -5.28209   -12.32487    -3.52139
   423   1    -1.76070   -12.32487    -3.52139
   424   1     1.76070   -12.32487    -3.52139
   425   1     5.28209   -12.32487    -3.52139
   426   1    -8.80348    -8.80348    -3.52139
   427   1    -5.28209    -8.80348    -3.52139
   428   1    -1.76070    -8.80348    -3.52139
   429   1     1.76070    -8.80348    -3.52139
   430   1     5.28209    -8.80348    -3.52139
   431   1     8.80348    -8.80348    -3.52139
   432   1   -12.32487    -5.28209    -3.52139
   433   1    -8.80348    -5.28209    -3.52139
   434   1    -5.28209    -5.28209    -3.52139
   435   1    -1.76070    -5.28209    -3.52139
   436   1     1.76070    -5.28209    -3.52139
   437   1     5.28209    -5.28209    -3.52139
   438   1     8.80348    -5.28209    -3.52139
   439   1    12.32487    -5.28209    -3.52139
   440   1   -12.32487    -1.76070    -3.52139
   441   1    -8.80348    -1.76070    -3.52139
   442   1    -5.28209    -1.76070    -3.52139
   443   1    -1.76070    -1.76070    -3.52139
   444   1     1.76070    -1.76070    -3.52139
   445   1     5.28209    -1.76070    -3.52139
   446   1     8.80348    -1.76070    -3.52139
   447   1    12.32487    -1.76070    -3.52139
   448   1   -12.32487     1.76070    -3.52139
   449   1    -8.80348     1.76070    -3.52139
   450   1    -5.28209     1.76070    -3.52139
   451   1    -1.76070     1.76070    -3.52139
   452   1     1.76070     1.76070    -3.52139
   453   1     5.28209     1.76070    -3.52139
   454   1     8.80348     1.76070    -3.52139
   455   1    12.32487     1.76070    -3.52139
   456   1   -12.32487     5.28209    -3.52139
   457   1    -8.80348     5.28209    -3.52139
   458   1    -5.28209     5.28209    -3.52139
   459   1    -1.76070     5.28209    -3.52139
   460   1     1.76070     5.28209    -3.52139
   461   1     5.28209     5.28209    -3.52139
   462   1     8.80348     5.28209    -3.52139
   463   1    12.32487     5.28209    -3.52139
   464   1    -8.80348     8.80348    -3.52139
   465   1    -5.28209     8.80348    -3.52139
   466   1    -1.76070     8.80348    -3.52139
   467   1     1.76070     8.80348    -3.52139
   468   1     5.28209     8.80348    -3.52139
   469   1     8.80348     8.80348    -3.52139
   470   1    -5.28209    12.32487    -3.52139
   471   1    -1.76070    12.32487    -3.52139
   472   1     1.76070    12.32487    -3.52139
   473   1     5.28209    12.32487    -3.52139
   474   1    -5.28209   -12.32487     0.00000
   475   1    -1.76070   -12.32487     0.00000
   476   1     1.76070   -12.32487     0.00000
   477   1     5.28209   -12.32487     0.00000
   478   1    -8.80348    -8.80348     0.00000
   479   1    -5.28209    -8.80348     0.00000
   480   1    -1.76070    -8.80348     0.00000
   481   1     1.76070    -8.80348     0.00000
   482   1     5.28209    -8.80348     0.00000
   483   1     8.80348    -8.80348     0.00000
   484   1   -12.32487    -5.28209     0.00000
   485   1    -8.80348    -5.28209     0.00000
   486   1    -5.28209    -5.28209     0.00000
   487   1    -1.76070    -5.28209     0.00000
   488   1     1.76070    -5.28209     0.00000
   489   1     5.28209    -5.28209     0.00000
   490   1     8.80348    -5.28209     0.00000
   491   1    12.32487    -5.28209     0.00000
   492   1   -12.32487    -1.76070     0.00000
   493   1    -8.80348    -1.76070     0.00000
   494   1    -5.28209    -1.76070     0.00000
   495   1    -1.76070    -1.76070     0.00000
   496   1     1.76070    -1.76070     0.00000
   497   1     5.28209    -1.76070     0.00000
   498   1     8.80348    -1.76070     0.00000
   499   1    12.32487    -1.76070     0.00000
   500   1   -12.32487     1.76070     0.00000
   501   1    -8.80348     1.76070     0.00000
   502   1    -5.28209     1.76070     0.00000
   503   1    -1.76070     1.76070     0.00000
   504   1     1.76070     1.76070     0.00000
   505   1     5.28209     1.76070     0.00000
   506   1     8.80348     1.76070     0.00000
   507   1    12.32487     1.76070     0.00000
   508   1   -12.32487     5.28209     0.00000
   509   1    -8.80348     5.28209     0.00000
   510   1    -5.28209     5.28209     0.00000
   511   1    -1.76070     5.28209     0.00000
   512   1     1.76070     5.28209     0.00000
   513   1     5.28209     5.28209     0.00000
   514   1     8.80348     5.28209     0.00000
   515   1    12.32487     5.28209     0.00000
   516   1    -8.80348     8.80348     0.00000
   517   1    -5.28209     8.80348     0.00000
   518   1    -1.76070     8.80348     0.00000
   519   1     1.76070     8.80348     0.00000
   520   1     5.28209     8.80348     0.00000
   521   1     8.80348     8.80348     0.00000
   522   1    -5.28209    12.32487     0.00000
   523   1    -1.76070    12.32487     0.00000
   524   1     1.76070    12.32487     0.00000
   525   1     5.28209    12.32487     0.00000
   526   1    -5.28209   -12.32487     3.52139
   527   1    -1.76070   -12.32487     3.52139
   528   1     1.76070   -12.32487     3.52139
   529   1     5.28209   -12.32487     3.52139
   530   1    -8.80348    -8.80348     3.52139
   531   1    -5.28209    -8.80348     3.52139
   532   1    -1.76070    -8.80348     3.52139
   533   1     1.76070    -8.80348     3.52139
   534   1     5.28209    -8.80348     3.52139
   535   1     8.80348    -8.80348     3.52139
   536   1   -12.32487    -5.28209     3.52139
   537   1    -8.80348    -5.28209     3.52139
   538   1    -5.28209    -5.28209     3.52139
   539   1    -1.76070    -5.28209     3.52139
   540   1     1.76070    -5.28209     3.52139
   541   1     5.28209    -5.28209     3.52139
   542   1     8.80348    -5.28209     3.52139
   543   1    12.32487    -5.28209     3.52139
   544   1   -12.32487    -1.76070     3.52139
   545   1    -8.80348    -1.76070     3.52139
   546   1    -5.28209    -1.76070     3.52139
   547   1    -1.76070    -1.76070     3.52139
   548   1     1.76070    -1.76070     3.52139
   549   1     5.28209    -1.76070     3.52139
   550   1     8.80348    -1.76070     3.52139
   551   1    12.32487    -1.76070     3.52139
   552   1   -12.32487     1.76070     3.52139
   553   1    -8.80348     1.76070     3.52139
   554   1    -5.28209     1.76070     3.52139
   555   1    -1.76070     1.76070     3.52139
   556   1     1.76070     1.76070     3.52139
   557   1     5.28209     1.76070     3.52139
   558   1     8.80348     1.76070     3.52139
   559   1    12.32487     1.76070     3.52139
   560   1   -12.32487     5.28209     3.52139
   561   1    -8.80348     5.28209     3.52139
   562   1    -5.28209     5.28209     3.52139
   563   1    -1.76070     5.28209     3.52139
   564   1     1.76070     5.28209     3.52139
   565   1     5.28209     5.28209     3.52139
   566   1     8.80348     5.28209     3.52139
   567   1    12.32487     5.28209     3.52139
   568   1    -8.80348     8.80348     3.52139
   569   1    -5.28209     8.80348     3.52139
   570   1    -1.76070     8.80348     3.52139
   571   1     1.76070     8.80348     3.52139
   572   1     5.28209     8.80348     3.52139
   573   1     8.80348     8.80348     3.52139
   574   1    -5.28209    12.32487     3.52139
   575   1    -1.76070    12.32487     3.52139
   576   1     1.76070    12.32487     3.52139
   577   1     5.28209    12.32487     3.52139
   578   1    -1.76070   -12.32487     7.04278
   579   1     1.76070   -12.32487     7.04278
   580   1    -8.80348    -8.80348     7.04278
   581   1    -5.28209    -8.80348     7.04278
   582   1    -1.76070    -8.80348     7.04278
   583   1     1.76070    -8.80348     7.04278
   584   1     5.28209    -8.80348     7.04278
   585   1     8.80348    -8.80348     7.04278
   586   1    -8.80348    -5.28209     7.04278
   587   1    -5.28209    -5.28209     7.04278
   588   1    -1.76070    -5.28209     7.04278
   589   1     1.76070    -5.28209     7.04278
   590   1     5.28209    -5.28209     7.04278
   591   1     8.80348    -5.28209     7.04278
   592   1   -12.32487    -1.76070     7.04278
   593   1    -8.80348    -1.76070     7.04278
   594   1    -5.28209    -1.76070     7.04278
   595   1    -1.76070    -1.76070     7.04278
   596   1     1.76070    -1.76070     7.04278
   597   1     5.28209    -1.76070     7.04278
   598   1     8.80348    -1.76070     7.04278
   599   1    12.32487    -1.76070     7.04278
   600   1   -12.32487     1.76070     7.04278
   601   1    -8.80348     1.76070     7.04278
   602   1    -5.28209     1.76070     7.04278
   603   1    -1.76070     1.76070     7.04278
   604   1     1.76070     1.76070     7.04278
   605   1     5.28209     1.76070     7.04278
   606   1     8.80348     1.76070     7.04278
   607   1    12.32487     1.76070     7.04278
   608   1    -8.80348     5.28209     7.04278
   609   1    -5.28209     5.28209     7.04278
   610   1    -1.76070     5.28209     7.04278
   611   1     1.76070     5.28209     7.04278
   612   1     5.28209     5.28209     7.04278
   613   1     8.80348     5.28209     7.04278
   614   1    -8.80348     8.80348     7.04278
   615   1    -5.28209     8.80348     7.04278
   616   1    -1.76070     8.80348     7.04278
   617   1     1.76070     8.80348     7.04278
   618   1     5.28209     8.80348     7.04278
   619   1     8.80348     8.80348     7.04278
   620   1    -1.76070    12.32487     7.04278
   621   1     1.76070    12.32487     7.04278
   622   1    -5.28209    -8.80348    10.56418
   623   1    -1.76070    -8.80348    10.56418
   624   1     1.76070    -8.80348    10.56418
   625   1     5.28209    -8.80348    10.56418
   626   1    -8.80348    -5.28209    10.56418
   627   1    -5.28209    -5.28209    10.56418
   628   1    -1.76070    -5.28209    10.56418
   629   1     1.76070    -5.28209    10.56418
   630   1     5.28209    -5.28209    10.56418
   631   1     8.80348    -5.28209    10.56418
   632   1    -8.80348    -1.76070    10.56418
   633   1    -5.28209    -1.76070    10.56418
   634   1    -1.76070    -1.76070    10.56418