LAMMPS DATA FOR MEAM SIMULATION

   1157   atoms
      2   atom types

  -25.40   25.40   xlo xhi
  -25.40   25.40   ylo yhi
  -25.40   25.40   zlo zhi

 Atoms

     1   1    -0.00000     0.00000   -15.36770
     2   1    -3.92242    -7.76234   -11.76900
     3   2     0.00000    -7.86176   -11.75380
     4   2     3.92242    -7.76234   -11.76900
     5   1    -7.76234    -3.92242   -11.76900
     6   1    -3.96699    -3.96699   -11.63910
     7   2     0.00000    -3.98115   -11.59440
     8   2     3.96699    -3.96699   -11.63910
     9   2     7.76234    -3.92242   -11.76900
    10   1    -7.86176     0.00000   -11.75380
    11   1    -3.98115     0.00000   -11.59440
    12   1    -0.00000    -0.00000   -11.46060
    13   2     3.98115    -0.00000   -11.59440
    14   2     7.86176    -0.00000   -11.75380
    15   1    -7.76234     3.92242   -11.76900
    16   1    -3.96699     3.96699   -11.63910
    17   1    -0.00000     3.98115   -11.59440
    18   2     3.96699     3.96699   -11.63910
    19   2     7.76234     3.92242   -11.76900
    20   1    -3.92242     7.76234   -11.76900
    21   2     0.00000     7.86176   -11.75380
    22   2     3.92242     7.76234   -11.76900
    23   1    -3.92242   -11.76900    -7.76234
    24   1    -0.00000   -11.75380    -7.86176
    25   2     3.92242   -11.76900    -7.76234
    26   1    -7.92862    -7.92862    -7.92862
    27   1    -3.93922    -7.92589    -7.92589
    28   2     0.00000    -7.92456    -7.92456
    29   2     3.93922    -7.92589    -7.92589
    30   2     7.92862    -7.92862    -7.92862
    31   1   -11.76900    -3.92242    -7.76234
    32   1    -7.92589    -3.93922    -7.92589
    33   1    -4.08272    -4.08272    -7.96421
    34   2     0.00000    -4.01990    -7.73671
    35   2     4.08272    -4.08272    -7.96421
    36   2     7.92589    -3.93922    -7.92589
    37   2    11.76900    -3.92242    -7.76234
    38   1   -11.75380     0.00000    -7.86176
    39   1    -7.92456     0.00000    -7.92456
    40   1    -4.01990    -0.00000    -7.73671
    41   1    -0.00000     0.00000    -7.70215
    42   2     4.01990    -0.00000    -7.73671
    43   2     7.92456    -0.00000    -7.92456
    44   2    11.75380     0.00000    -7.86176
    45   1   -11.76900     3.92242    -7.76234
    46   1    -7.92589     3.93922    -7.92589
    47   1    -4.08272     4.08272    -7.96421
    48   2     0.00000     4.01990    -7.73671
    49   2     4.08272     4.08272    -7.96421
    50   2     7.92589     3.93922    -7.92589
    51   2    11.76900     3.92242    -7.76234
    52   1    -7.92862     7.92862    -7.92862
    53   1    -3.93922     7.92589    -7.92589
    54   2     0.00000     7.92456    -7.92456
    55   2     3.93922     7.92589    -7.92589
    56   2     7.92862     7.92862    -7.92862
    57   1    -3.92242    11.76900    -7.76234
    58   2     0.00000    11.75380    -7.86176
    59   2     3.92242    11.76900    -7.76234
    60   1    -7.76234   -11.76900    -3.92242
    61   1    -3.96699   -11.63910    -3.96699
    62   2     0.00000   -11.59440    -3.98115
    63   2     3.96699   -11.63910    -3.96699
    64   2     7.76234   -11.76900    -3.92242
    65   1   -11.76900    -7.76234    -3.92242
    66   1    -7.92589    -7.92589    -3.93922
    67   1    -4.08272    -7.96421    -4.08272
    68   2     0.00000    -7.73671    -4.01990
    69   2     4.08272    -7.96421    -4.08272
    70   2     7.92589    -7.92589    -3.93922
    71   2    11.76900    -7.76234    -3.92242
    72   1   -11.63910    -3.96699    -3.96699
    73   1    -7.96421    -4.08272    -4.08272
    74   1    -4.01593    -4.01593    -4.01593
    75   2     0.00000    -4.02945    -4.02945
    76   2     4.01593    -4.01593    -4.01593
    77   2     7.96421    -4.08272    -4.08272
    78   2    11.63910    -3.96699    -3.96699
    79   1   -11.59440    -0.00000    -3.98115
    80   1    -7.73671     0.00000    -4.01990
    81   1    -4.02945     0.00000    -4.02945
    82   2     0.00000    -0.00000    -3.86878
    83   2     4.02945    -0.00000    -4.02945
    84   2     7.73671     0.00000    -4.01990
    85   2    11.59440     0.00000    -3.98115
    86   1   -11.63910     3.96699    -3.96699
    87   1    -7.96421     4.08272    -4.08272
    88   1    -4.01593     4.01593    -4.01593
    89   2     0.00000     4.02945    -4.02945
    90   2     4.01593     4.01593    -4.01593
    91   2     7.96421     4.08272    -4.08272
    92   2    11.63910     3.96699    -3.96699
    93   1   -11.76900     7.76234    -3.92242
    94   1    -7.92589     7.92589    -3.93922
    95   1    -4.08272     7.96421    -4.08272
    96   2     0.00000     7.73671    -4.01990
    97   2     4.08272     7.96421    -4.08272
    98   2     7.92589     7.92589    -3.93922
    99   2    11.76900     7.76234    -3.92242
   100   1    -7.76234    11.76900    -3.92242
   101   1    -3.96699    11.63910    -3.96699
   102   1    -0.00000    11.59440    -3.98115
   103   2     3.96699    11.63910    -3.96699
   104   2     7.76234    11.76900    -3.92242
   105   1    -0.00000   -15.36770     0.00000
   106   1    -7.86176   -11.75380    -0.00000
   107   1    -3.98115   -11.59440     0.00000
   108   2     0.00000   -11.46060    -0.00000
   109   2     3.98115   -11.59440    -0.00000
   110   2     7.86176   -11.75380    -0.00000
   111   1   -11.75380    -7.86176    -0.00000
   112   1    -7.92456    -7.92456    -0.00000
   113   1    -4.01990    -7.73671     0.00000
   114   2     0.00000    -7.70215     0.00000
   115   2     4.01990    -7.73671    -0.00000
   116   2     7.92456    -7.92456     0.00000
   117   2    11.75380    -7.86176     0.00000
   118   1   -11.59440    -3.98115    -0.00000
   119   1    -7.73671    -4.01990    -0.00000
   120   1    -4.02945    -4.02945     0.00000
   121   1    -0.00000    -3.86878    -0.00000
   122   2     4.02945    -4.02945     0.00000
   123   2     7.73671    -4.01990    -0.00000
   124   2    11.59440    -3.98115     0.00000
   125   1   -15.36770     0.00000     0.00000
   126   1   -11.46060    -0.00000     0.00000
   127   1    -7.70215     0.00000     0.00000
   128   1    -3.86878     0.00000     0.00000
   129   2     0.00000     0.00000    -0.00000
   130   2     3.86878     0.00000     0.00000
   131   2     7.70215    -0.00000    -0.00000
   132   2    11.46060     0.00000     0.00000
   133   2    15.36770    -0.00000    -0.00000
   134   1   -11.59440     3.98115     0.00000
   135   1    -7.73671     4.01990    -0.00000
   136   1    -4.02945     4.02945     0.00000
   137   2     0.00000     3.86878    -0.00000
   138   2     4.02945     4.02945     0.00000
   139   2     7.73671     4.01990    -0.00000
   140   2    11.59440     3.98115     0.00000
   141   1   -11.75380     7.86176    -0.00000
   142   1    -7.92456     7.92456    -0.00000
   143   1    -4.01990     7.73671    -0.00000
   144   2     0.00000     7.70215    -0.00000
   145   2     4.01990     7.73671     0.00000
   146   2     7.92456     7.92456     0.00000
   147   2    11.75380     7.86176    -0.00000
   148   1    -7.86176    11.75380     0.00000
   149   1    -3.98115    11.59440     0.00000
   150   2     0.00000    11.46060    -0.00000
   151   2     3.98115    11.59440    -0.00000
   152   2     7.86176    11.75380    -0.00000
   153   2     0.00000    15.36770    -0.00000
   154   1    -7.76234   -11.76900     3.92242
   155   1    -3.96699   -11.63910     3.96699
   156   1    -0.00000   -11.59440     3.98115
   157   2     3.96699   -11.63910     3.96699
   158   2     7.76234   -11.76900     3.92242
   159   1   -11.76900    -7.76234     3.92242
   160   1    -7.92589    -7.92589     3.93922
   161   1    -4.08272    -7.96421     4.08272
   162   1    -0.00000    -7.73671     4.01990
   163   2     4.08272    -7.96421     4.08272
   164   2     7.92589    -7.92589     3.93922
   165   2    11.76900    -7.76234     3.92242
   166   1   -11.63910    -3.96699     3.96699
   167   1    -7.96421    -4.08272     4.08272
   168   1    -4.01593    -4.01593     4.01593
   169   1    -0.00000    -4.02945     4.02945
   170   2     4.01593    -4.01593     4.01593
   171   2     7.96421    -4.08272     4.08272
   172   2    11.63910    -3.96699     3.96699
   173   1   -11.59440     0.00000     3.98115
   174   1    -7.73671    -0.00000     4.01990
   175   1    -4.02945     0.00000     4.02945
   176   1    -0.00000    -0.00000     3.86878
   177   2     4.02945    -0.00000     4.02945
   178   2     7.73671    -0.00000     4.01990
   179   2    11.59440     0.00000     3.98115
   180   1   -11.63910     3.96699     3.96699
   181   1    -7.96421     4.08272     4.08272
   182   1    -4.01593     4.01593     4.01593
   183   2     0.00000     4.02945     4.02945
   184   2     4.01593     4.01593     4.01593
   185   2     7.96421     4.08272     4.08272
   186   2    11.63910     3.96699     3.96699
   187   1   -11.76900     7.76234     3.92242
   188   1    -7.92589     7.92589     3.93922
   189   1    -4.08272     7.96421     4.08272
   190   1    -0.00000     7.73671     4.01990
   191   2     4.08272     7.96421     4.08272
   192   2     7.92589     7.92589     3.93922
   193   2    11.76900     7.76234     3.92242
   194   1    -7.76234    11.76900     3.92242
   195   1    -3.96699    11.63910     3.96699
   196   1    -0.00000    11.59440     3.98115
   197   2     3.96699    11.63910     3.96699
   198   2     7.76234    11.76900     3.92242
   199   1    -3.92242   -11.76900     7.76234
   200   2     0.00000   -11.75380     7.86176
   201   2     3.92242   -11.76900     7.76234
   202   1    -7.92862    -7.92862     7.92862
   203   1    -3.93922    -7.92589     7.92589
   204   1    -0.00000    -7.92456     7.92456
   205   2     3.93922    -7.92589     7.92589
   206   2     7.92862    -7.92862     7.92862
   207   1   -11.76900    -3.92242     7.76234
   208   1    -7.92589    -3.93922     7.92589
   209   1    -4.08272    -4.08272     7.96421
   210   2     0.00000    -4.01990     7.73671
   211   2     4.08272    -4.08272     7.96421
   212   2     7.92589    -3.93922     7.92589
   213   2    11.76900    -3.92242     7.76234
   214   1   -11.75380    -0.00000     7.86176
   215   1    -7.92456     0.00000     7.92456
   216   1    -4.01990     0.00000     7.73671
   217   1    -0.00000     0.00000     7.70215
   218   2     4.01990    -0.00000     7.73671
   219   2     7.92456     0.00000     7.92456
   220   2    11.75380    -0.00000     7.86176
   221   1   -11.76900     3.92242     7.76234
   222   1    -7.92589     3.93922     7.92589
   223   1    -4.08272     4.08272     7.96421
   224   1    -0.00000     4.01990     7.73671
   225   2     4.08272     4.08272     7.96421
   226   2     7.92589     3.93922     7.92589
   227   2    11.76900     3.92242     7.76234
   228   1    -7.92862     7.92862     7.92862
   229   1    -3.93922     7.92589     7.92589
   230   2     0.00000     7.92456     7.92456
   231   2     3.93922     7.92589     7.92589
   232   2     7.92862     7.92862     7.92862
   233   1    -3.92242    11.76900     7.76234
   234   1    -0.00000    11.75380     7.86176
   235   2     3.92242    11.76900     7.76234
   236   1    -3.92242    -7.76234    11.76900
   237   2     0.00000    -7.86176    11.75380
   238   2     3.92242    -7.76234    11.76900
   239   1    -7.76234    -3.92242    11.76900
   240   1    -3.96699    -3.96699    11.63910
   241   1    -0.00000    -3.98115    11.59440
   242   2     3.96699    -3.96699    11.63910
   243   2     7.76234    -3.92242    11.76900
   244   1    -7.86176     0.00000    11.75380
   245   1    -3.98115    -0.00000    11.59440
   246   1    -0.00000     0.00000    11.46060
   247   2     3.98115     0.00000    11.59440
   248   2     7.86176    -0.00000    11.75380
   249   1    -7.76234     3.92242    11.76900
   250   1    -3.96699     3.96699    11.63910
   251   2     0.00000     3.98115    11.59440
   252   2     3.96699     3.96699    11.63910
   253   2     7.76234     3.92242    11.76900
   254   1    -3.92242     7.76234    11.76900
   255   1    -0.00000     7.86176    11.75380
   256   2     3.92242     7.76234    11.76900
   257   2     0.00000    -0.00000    15.36770
   258   1    -1.90747    -1.90747   -15.40390
   259   2     1.90747    -1.90747   -15.40390
   260   1    -1.90747     1.90747   -15.40390
   261   2     1.90747     1.90747   -15.40390
   262   1    -2.04694    -9.74353   -11.71420
   263   2     2.04694    -9.74353   -11.71420
   264   1    -5.83203    -5.83203   -11.75240
   265   1    -1.95797    -5.84612   -11.66260
   266   2     1.95797    -5.84612   -11.66260
   267   2     5.83203    -5.83203   -11.75240
   268   1    -9.74353    -2.04694   -11.71420
   269   1    -5.84612    -1.95797   -11.66260
   270   1    -2.03518    -2.03518   -11.57490
   271   2     2.03518    -2.03518   -11.57490
   272   2     5.84612    -1.95797   -11.66260
   273   2     9.74353    -2.04694   -11.71420
   274   1    -9.74353     2.04694   -11.71420
   275   1    -5.84612     1.95797   -11.66260
   276   1    -2.03518     2.03518   -11.57490
   277   2     2.03518     2.03518   -11.57490
   278   2     5.84612     1.95797   -11.66260
   279   2     9.74353     2.04694   -11.71420
   280   1    -5.83203     5.83203   -11.75240
   281   1    -1.95797     5.84612   -11.66260
   282   2     1.95797     5.84612   -11.66260
   283   2     5.83203     5.83203   -11.75240
   284   1    -2.04694     9.74353   -11.71420
   285   2     2.04694     9.74353   -11.71420
   286   1    -1.92767   -13.59820    -7.73049
   287   2     1.92767   -13.59820    -7.73049
   288   1    -9.76011    -9.76011    -7.86613
   289   1    -5.94102    -9.96343    -7.90815
   290   1    -1.99125    -9.87057    -7.88878
   291   2     1.99125    -9.87057    -7.88878
   292   2     5.94102    -9.96343    -7.90815
   293   2     9.76011    -9.76011    -7.86613
   294   1    -9.96343    -5.94102    -7.90815
   295   1    -6.02651    -6.02651    -7.89042
   296   1    -1.96023    -5.97872    -7.88739
   297   2     1.96023    -5.97872    -7.88739
   298   2     6.02651    -6.02651    -7.89042
   299   2     9.96343    -5.94102    -7.90815
   300   1   -13.59820    -1.92767    -7.73049
   301   1    -9.87057    -1.99125    -7.88878
   302   1    -5.97872    -1.96023    -7.88739
   303   1    -1.95135    -1.95135    -7.69468
   304   2     1.95135    -1.95135    -7.69468
   305   2     5.97872    -1.96023    -7.88739
   306   2     9.87057    -1.99125    -7.88878
   307   2    13.59820    -1.92767    -7.73049
   308   1   -13.59820     1.92767    -7.73049
   309   1    -9.87057     1.99125    -7.88878
   310   1    -5.97872     1.96023    -7.88739
   311   1    -1.95135     1.95135    -7.69468
   312   2     1.95135     1.95135    -7.69468
   313   2     5.97872     1.96023    -7.88739
   314   2     9.87057     1.99125    -7.88878
   315   2    13.59820     1.92767    -7.73049
   316   1    -9.96343     5.94102    -7.90815
   317   1    -6.02651     6.02651    -7.89042
   318   1    -1.96023     5.97872    -7.88739
   319   2     1.96023     5.97872    -7.88739
   320   2     6.02651     6.02651    -7.89042
   321   2     9.96343     5.94102    -7.90815
   322   1    -9.76011     9.76011    -7.86613
   323   1    -5.94102     9.96343    -7.90815
   324   1    -1.99125     9.87057    -7.88878
   325   2     1.99125     9.87057    -7.88878
   326   2     5.94102     9.96343    -7.90815
   327   2     9.76011     9.76011    -7.86613
   328   1    -1.92767    13.59820    -7.73049
   329   2     1.92767    13.59820    -7.73049
   330   1    -5.74712   -13.73520    -3.81335
   331   1    -1.96661   -13.62830    -3.91587
   332   2     1.96661   -13.62830    -3.91587
   333   2     5.74712   -13.73520    -3.81335
   334   1    -9.83902    -9.83902    -3.96386
   335   1    -5.91216    -9.84049    -4.01739
   336   1    -2.07759    -9.62177    -3.92749
   337   2     2.07759    -9.62177    -3.92749
   338   2     5.91216    -9.84049    -4.01739
   339   2     9.83902    -9.83902    -3.96386
   340   1   -13.73520    -5.74712    -3.81335
   341   1    -9.84049    -5.91216    -4.01739
   342   1    -6.08682    -6.08682    -4.14096
   343   1    -2.02348    -5.91060    -3.98937
   344   2     2.02348    -5.91060    -3.98937
   345   2     6.08682    -6.08682    -4.14096
   346   2     9.84049    -5.91216    -4.01739
   347   2    13.73520    -5.74712    -3.81335
   348   1   -13.62830    -1.96661    -3.91587
   349   1    -9.62177    -2.07759    -3.92749
   350   1    -5.91060    -2.02348    -3.98937
   351   1    -1.96145    -1.96145    -3.90432
   352   2     1.96145    -1.96145    -3.90432
   353   2     5.91060    -2.02348    -3.98937
   354   2     9.62177    -2.07759    -3.92749
   355   2    13.62830    -1.96661    -3.91587
   356   1   -13.62830     1.96661    -3.91587
   357   1    -9.62177     2.07759    -3.92749
   358   1    -5.91060     2.02348    -3.98937
   359   1    -1.96145     1.96145    -3.90432
   360   2     1.96145     1.96145    -3.90432
   361   2     5.91060     2.02348    -3.98937
   362   2     9.62177     2.07759    -3.92749
   363   2    13.62830     1.96661    -3.91587
   364   1   -13.73520     5.74712    -3.81335
   365   1    -9.84049     5.91216    -4.01739
   366   1    -6.08682     6.08682    -4.14096
   367   1    -2.02348     5.91060    -3.98937
   368   2     2.02348     5.91060    -3.98937
   369   2     6.08682     6.08682    -4.14096
   370   2     9.84049     5.91216    -4.01739
   371   2    13.73520     5.74712    -3.81335
   372   1    -9.83902     9.83902    -3.96386
   373   1    -5.91216     9.84049    -4.01739
   374   1    -2.07759     9.62177    -3.92749
   375   2     2.07759     9.62177    -3.92749
   376   2     5.91216     9.84049    -4.01739
   377   2     9.83902     9.83902    -3.96386
   378   1    -5.74712    13.73520    -3.81335
   379   1    -1.96661    13.62830    -3.91587
   380   2     1.96661    13.62830    -3.91587
   381   2     5.74712    13.73520    -3.81335
   382   1    -5.84152   -13.60250     0.00000
   383   1    -1.92202   -13.41690    -0.00000
   384   2     1.92202   -13.41690     0.00000
   385   2     5.84152   -13.60250    -0.00000
   386   1    -9.84396    -9.84396     0.00000
   387   1    -5.83235    -9.83866    -0.00000
   388   1    -1.91931    -9.73151     0.00000
   389   2     1.91931    -9.73151     0.00000
   390   2     5.83235    -9.83866     0.00000
   391   2     9.84396    -9.84396    -0.00000
   392   1   -13.60250    -5.84152    -0.00000
   393   1    -9.83866    -5.83235    -0.00000
   394   1    -5.94778    -5.94778    -0.00000
   395   1    -2.04853    -5.82154    -0.00000
   396   2     2.04853    -5.82154     0.00000
   397   2     5.94778    -5.94778    -0.00000
   398   2     9.83866    -5.83235    -0.00000
   399   2    13.60250    -5.84152    -0.00000
   400   1   -13.41690    -1.92202     0.00000
   401   1    -9.73151    -1.91931    -0.00000
   402   1    -5.82154    -2.04853    -0.00000
   403   1    -2.00857    -2.00857    -0.00000
   404   2     2.00857    -2.00857    -0.00000
   405   2     5.82154    -2.04853     0.00000
   406   2     9.73151    -1.91931    -0.00000
   407   2    13.41690    -1.92202     0.00000
   408   1   -13.41690     1.92202    -0.00000
   409   1    -9.73151     1.91931    -0.00000
   410   1    -5.82154     2.04853     0.00000
   411   1    -2.00857     2.00857    -0.00000
   412   2     2.00857     2.00857    -0.00000
   413   2     5.82154     2.04853     0.00000
   414   2     9.73151     1.91931     0.00000
   415   2    13.41690     1.92202     0.00000
   416   1   -13.60250     5.84152     0.00000
   417   1    -9.83866     5.83235    -0.00000
   418   1    -5.94778     5.94778    -0.00000
   419   1    -2.04853     5.82154    -0.00000
   420   2     2.04853     5.82154     0.00000
   421   2     5.94778     5.94778    -0.00000
   422   2     9.83866     5.83235    -0.00000
   423   2    13.60250     5.84152     0.00000
   424   1    -9.84396     9.84396    -0.00000
   425   1    -5.83235     9.83866    -0.00000
   426   1    -1.91931     9.73151    -0.00000
   427   2     1.91931     9.73151    -0.00000
   428   2     5.83235     9.83866    -0.00000
   429   2     9.84396     9.84396    -0.00000
   430   1    -5.84152    13.60250     0.00000
   431   1    -1.92202    13.41690    -0.00000
   432   2     1.92202    13.41690     0.00000
   433   2     5.84152    13.60250    -0.00000
   434   1    -5.74712   -13.73520     3.81335
   435   1    -1.96661   -13.62830     3.91587
   436   2     1.96661   -13.62830     3.91587
   437   2     5.74712   -13.73520     3.81335
   438   1    -9.83902    -9.83902     3.96386
   439   1    -5.91216    -9.84049     4.01739
   440   1    -2.07759    -9.62177     3.92749
   441   2     2.07759    -9.62177     3.92749
   442   2     5.91216    -9.84049     4.01739
   443   2     9.83902    -9.83902     3.96386
   444   1   -13.73520    -5.74712     3.81335
   445   1    -9.84049    -5.91216     4.01739
   446   1    -6.08682    -6.08682     4.14096
   447   1    -2.02348    -5.91060     3.98937
   448   2     2.02348    -5.91060     3.98937
   449   2     6.08682    -6.08682     4.14096
   450   2     9.84049    -5.91216     4.01739
   451   2    13.73520    -5.74712     3.81335
   452   1   -13.62830    -1.96661     3.91587
   453   1    -9.62177    -2.07759     3.92749
   454   1    -5.91060    -2.02348     3.98937
   455   1    -1.96145    -1.96145     3.90432
   456   2     1.96145    -1.96145     3.90432
   457   2     5.91060    -2.02348     3.98937
   458   2     9.62177    -2.07759     3.92749
   459   2    13.62830    -1.96661     3.91587
   460   1   -13.62830     1.96661     3.91587
   461   1    -9.62177     2.07759     3.92749
   462   1    -5.91060     2.02348     3.98937
   463   1    -1.96145     1.96145     3.90432
   464   2     1.96145     1.96145     3.90432
   465   2     5.91060     2.02348     3.98937
   466   2     9.62177     2.07759     3.92749
   467   2    13.62830     1.96661     3.91587
   468   1   -13.73520     5.74712     3.81335
   469   1    -9.84049     5.91216     4.01739
   470   1    -6.08682     6.08682     4.14096
   471   1    -2.02348     5.91060     3.98937
   472   2     2.02348     5.91060     3.98937
   473   2     6.08682     6.08682     4.14096
   474   2     9.84049     5.91216     4.01739
   475   2    13.73520     5.74712     3.81335
   476   1    -9.83902     9.83902     3.96386
   477   1    -5.91216     9.84049     4.01739
   478   1    -2.07759     9.62177     3.92749
   479   2     2.07759     9.62177     3.92749
   480   2     5.91216     9.84049     4.01739
   481   2     9.83902     9.83902     3.96386
   482   1    -5.74712    13.73520     3.81335
   483   1    -1.96661    13.62830     3.91587
   484   2     1.96661    13.62830     3.91587
   485   2     5.74712    13.73520     3.81335
   486   1    -1.92767   -13.59820     7.73049
   487   2     1.92767   -13.59820     7.73049
   488   1    -9.76011    -9.76011     7.86613
   489   1    -5.94102    -9.96343     7.90815
   490   1    -1.99125    -9.87057     7.88878
   491   2     1.99125    -9.87057     7.88878
   492   2     5.94102    -9.96343     7.90815
   493   2     9.76011    -9.76011     7.86613
   494   1    -9.96343    -5.94102     7.90815
   495   1    -6.02651    -6.02651     7.89042
   496   1    -1.96023    -5.97872     7.88739
   497   2     1.96023    -5.97872     7.88739
   498   2     6.02651    -6.02651     7.89042
   499   2     9.96343    -5.94102     7.90815
   500   1   -13.59820    -1.92767     7.73049
   501   1    -9.87057    -1.99125     7.88878
   502   1    -5.97872    -1.96023     7.88739
   503   1    -1.95135    -1.95135     7.69468
   504   2     1.95135    -1.95135     7.69468
   505   2     5.97872    -1.96023     7.88739
   506   2     9.87057    -1.99125     7.88878
   507   2    13.59820    -1.92767     7.73049
   508   1   -13.59820     1.92767     7.73049
   509   1    -9.87057     1.99125     7.88878
   510   1    -5.97872     1.96023     7.88739
   511   1    -1.95135     1.95135     7.69468
   512   2     1.95135     1.95135     7.69468
   513   2     5.97872     1.96023     7.88739
   514   2     9.87057     1.99125     7.88878
   515   2    13.59820     1.92767     7.73049
   516   1    -9.96343     5.94102     7.90815
   517   1    -6.02651     6.02651     7.89042
   518   1    -1.96023     5.97872     7.88739
   519   2     1.96023     5.97872     7.88739
   520   2     6.02651     6.02651     7.89042
   521   2     9.96343     5.94102     7.90815
   522   1    -9.76011     9.76011     7.86613
   523   1    -5.94102     9.96343     7.90815
   524   1    -1.99125     9.87057     7.88878
   525   2     1.99125     9.87057     7.88878
   526   2     5.94102     9.96343     7.90815
   527   2     9.76011     9.76011     7.86613
   528   1    -1.92767    13.59820     7.73049
   529   2     1.92767    13.59820     7.73049
   530   1    -2.04694    -9.74353    11.71420
   531   2     2.04694    -9.74353    11.71420
   532   1    -5.83203    -5.83203    11.75240
   533   1    -1.95797    -5.84612    11.66260
   534   2     1.95797    -5.84612    11.66260
   535   2     5.83203    -5.83203    11.75240
   536   1    -9.74353    -2.04694    11.71420
   537   1    -5.84612    -1.95797    11.66260
   538   1    -2.03518    -2.03518    11.57490
   539   2     2.03518    -2.03518    11.57490
   540   2     5.84612    -1.95797    11.66260
   541   2     9.74353    -2.04694    11.71420
   542   1    -9.74353     2.04694    11.71420
   543   1    -5.84612     1.95797    11.66260
   544   1    -2.03518     2.03518    11.57490
   545   2     2.03518     2.03518    11.57490
   546   2     5.84612     1.95797    11.66260
   547   2     9.74353     2.04694    11.71420
   548   1    -5.83203     5.83203    11.75240
   549   1    -1.95797     5.84612    11.66260
   550   2     1.95797     5.84612    11.66260
   551   2     5.83203     5.83203    11.75240
   552   1    -2.04694     9.74353    11.71420
   553   2     2.04694     9.74353    11.71420
   554   1    -1.90747    -1.90747    15.40390
   555   2     1.90747    -1.90747    15.40390
   556   1    -1.90747     1.90747    15.40390
   557   2     1.90747     1.90747    15.40390
   558   1    -1.90747   -15.40390    -1.90747
   559   2     1.90747   -15.40390    -1.90747
   560   1    -1.90747   -15.40390     1.90747
   561   2     1.90747   -15.40390     1.90747
   562   1    -2.04694   -11.71420    -9.74353
   563   2     2.04694   -11.71420    -9.74353
   564   1    -5.83203   -11.75240    -5.83203
   565   1    -1.95797   -11.66260    -5.84612
   566   2     1.95797   -11.66260    -5.84612
   567   2     5.83203   -11.75240    -5.83203
   568   1    -9.74353   -11.71420    -2.04694
   569   1    -5.84612   -11.66260    -1.95797
   570   1    -2.03518   -11.57490    -2.03518
   571   2     2.03518   -11.57490    -2.03518
   572   2     5.84612   -11.66260    -1.95797
   573   2     9.74353   -11.71420    -2.04694
   574   1    -9.74353   -11.71420     2.04694
   575   1    -5.84612   -11.66260     1.95797
   576   1    -2.03518   -11.57490     2.03518
   577   2     2.03518   -11.57490     2.03518
   578   2     5.84612   -11.66260     1.95797
   579   2     9.74353   -11.71420     2.04694
   580   1    -5.83203   -11.75240     5.83203
   581   1    -1.95797   -11.66260     5.84612
   582   2     1.95797   -11.66260     5.84612
   583   2     5.83203   -11.75240     5.83203
   584   1    -2.04694   -11.71420     9.74353
   585   2     2.04694   -11.71420     9.74353
   586   1    -1.92767    -7.73049   -13.59820
   587   2     1.92767    -7.73049   -13.59820
   588   1    -9.76011    -7.86613    -9.76011
   589   1    -5.94102    -7.90815    -9.96343
   590   1    -1.99125    -7.88878    -9.87057
   591   2     1.99125    -7.88878    -9.87057
   592   2     5.94102    -7.90815    -9.96343
   593   2     9.76011    -7.86613    -9.76011
   594   1    -9.96343    -7.90815    -5.94102
   595   1    -6.02651    -7.89042    -6.02651
   596   1    -1.96023    -7.88739    -5.97872
   597   2     1.96023    -7.88739    -5.97872
   598   2     6.02651    -7.89042    -6.02651
   599   2     9.96343    -7.90815    -5.94102
   600   1   -13.59820    -7.73049    -1.92767
   601   1    -9.87057    -7.88878    -1.99125
   602   1    -5.97872    -7.88739    -1.96023
   603   1    -1.95135    -7.69468    -1.95135
   604   2     1.95135    -7.69468    -1.95135
   605   2     5.97872    -7.88739    -1.96023
   606   2     9.87057    -7.88878    -1.99125
   607   2    13.59820    -7.73049    -1.92767
   608   1   -13.59820    -7.73049     1.92767
   609   1    -9.87057    -7.88878     1.99125
   610   1    -5.97872    -7.88739     1.96023
   611   1    -1.95135    -7.69468     1.95135
   612   2     1.95135    -7.69468     1.95135
   613   2     5.97872    -7.88739     1.96023
   614   2     9.87057    -7.88878     1.99125
   615   2    13.59820    -7.73049     1.92767
   616   1    -9.96343    -7.90815     5.94102
   617   1    -6.02651    -7.89042     6.02651
   618   1    -1.96023    -7.88739     5.97872
   619   2     1.96023    -7.88739     5.97872
   620   2     6.02651    -7.89042     6.02651
   621   2     9.96343    -7.90815     5.94102
   622   1    -9.76011    -7.86613     9.76011
   623   1    -5.94102    -7.90815     9.96343
   624   1    -1.99125    -7.88878     9.87057
   625   2     1.99125    -7.88878     9.87057
   626   2     5.94102    -7.90815     9.96343
   627   2     9.76011    -7.86613     9.76011
   628   1    -1.92767    -7.73049    13.59820
   629   2     1.92767    -7.73049    13.59820
   630   1    -5.74712    -3.81335   -13.73520
   631   1    -1.96661    -3.91587   -13.62830
   632   2     1.96661    -3.91587   -13.62830
   633   2     5.74712    -3.81335   -13.73520
   634   1    -9.83902    -3.96386    -9.83902