LAMMPS DATA FOR MEAM SIMULATION

   1157   atoms
      2   atom types

  -25.80   25.86   xlo xhi
  -25.80   25.86   ylo yhi
  -25.80   25.86   zlo zhi

 Atoms

     1   2    -0.00757    -0.05972   -15.64860
     2   2    -3.99099    -7.76936   -11.70050
     3   2     0.02156    -7.92588   -11.81550
     4   2     3.75949    -7.78201   -11.84010
     5   2    -7.73940    -3.91641   -11.64300
     6   2    -3.83829    -3.96979   -11.79200
     7   2     0.00887    -3.93597   -11.90010
     8   2     3.86527    -3.91341   -11.89490
     9   2     7.71605    -3.98122   -11.73040
    10   2    -7.78871     0.08155   -11.73390
    11   2    -3.95291    -0.02850   -11.75590
    12   2    -0.07226     0.04182   -11.87050
    13   2     3.86238    -0.01443   -11.82360
    14   2     7.74645    -0.07663   -11.86790
    15   2    -7.73001     3.88289   -11.57660
    16   2    -3.90022     3.92008   -11.70720
    17   2    -0.12308     4.00880   -11.88500
    18   2     3.84039     3.97651   -11.96020
    19   2     7.88994     3.93584   -11.88080
    20   2    -3.92993     7.68875   -11.59300
    21   2    -0.02980     7.90626   -11.87810
    22   2     3.86874     7.95308   -11.88710
    23   2    -3.97930   -11.76990    -7.81170
    24   2    -0.04677   -11.75280    -7.81869
    25   2     3.87413   -11.74250    -7.89828
    26   2    -7.83799    -7.84086    -7.86528
    27   2    -3.88602    -7.83429    -7.88298
    28   2     0.01987    -7.89064    -7.96787
    29   2     3.94256    -7.86425    -7.92178
    30   2     7.71682    -7.80362    -7.96515
    31   2   -11.74450    -3.84054    -7.81418
    32   2    -7.93127    -3.89047    -7.83820
    33   2    -3.86312    -3.90699    -7.76700
    34   2     0.04546    -3.96768    -7.95340
    35   2     3.90365    -3.98151    -7.89188
    36   2     7.65205    -3.91622    -7.92883
    37   2    11.60580    -3.94491    -7.77483
    38   2   -11.69490     0.03182    -7.89198
    39   2    -7.76687    -0.01257    -7.89840
    40   2    -3.80611    -0.08319    -7.86138
    41   2     0.09404     0.09466    -7.89360
    42   2     3.95408     0.07009    -7.89251
    43   2     7.94455     0.05502    -7.96674
    44   2    11.72450     0.04017    -8.03028
    45   2   -11.74380     3.94779    -7.76004
    46   2    -7.85465     3.90283    -7.77777
    47   2    -3.87254     3.91632    -7.86266
    48   2     0.03236     3.86097    -7.93595
    49   2     4.05833     4.03493    -7.88698
    50   2     7.89533     3.98787    -7.80598
    51   2    11.65850     3.96359    -7.85918
    52   2    -7.80422     7.89915    -7.71248
    53   2    -3.94204     7.81252    -7.83095
    54   2     0.05326     7.77949    -7.98367
    55   2     3.80026     7.82639    -7.90070
    56   2     7.76661     7.87665    -7.73947
    57   2    -3.83751    11.70540    -7.83336
    58   2    -0.02583    11.73950    -7.81823
    59   2     3.92191    11.75550    -7.85209
    60   2    -7.93256   -11.63620    -3.82798
    61   2    -3.98725   -11.61670    -4.00514
    62   2     0.10926   -11.82090    -3.89219
    63   2     3.89001   -11.85730    -3.99733
    64   2     7.80898   -11.79660    -4.01558
    65   2   -11.78370    -7.80541    -3.86569
    66   2    -7.86563    -7.74118    -3.97941
    67   2    -3.90733    -7.86917    -3.97707
    68   2     0.07470    -7.81506    -3.91730
    69   2     3.98936    -7.95125    -3.99231
    70   2     7.92993    -7.93398    -3.97565
    71   2    11.67820    -7.79162    -3.95171
    72   2   -11.82810    -4.00747    -3.95307
    73   2    -7.78838    -3.86651    -3.91127
    74   2    -3.93475    -3.98186    -3.89113
    75   2     0.08125    -3.92576    -3.85636
    76   2     3.88781    -3.93285    -3.94212
    77   2     7.88491    -3.90353    -4.01443
    78   2    11.70440    -3.88564    -3.90918
    79   2   -11.77010    -0.05049    -3.85054
    80   2    -7.85675    -0.07314    -3.92934
    81   2    -3.78519     0.03861    -3.87929
    82   2     0.01754    -0.07771    -3.97993
    83   2     4.02128    -0.02441    -4.03559
    84   2     7.89685     0.00288    -3.98410
    85   2    11.78540     0.03457    -3.86759
    86   2   -11.68950     3.86077    -3.91485
    87   2    -7.76398     3.88517    -3.88941
    88   2    -3.85446     3.84053    -3.88465
    89   2     0.07438     3.82077    -3.86472
    90   2     3.88054     3.89872    -3.83865
    91   2     7.84432     3.91833    -3.87963
    92   2    11.79310     4.02019    -3.87516
    93   2   -11.82120     7.83462    -3.77967
    94   2    -7.82867     7.84814    -3.89099
    95   2    -3.84686     7.81674    -3.92512
    96   2     0.01729     7.84864    -4.04015
    97   2     3.87610     7.75735    -3.89975
    98   2     7.74489     7.79866    -3.98336
    99   2    11.61600     7.94132    -3.94681
   100   2    -7.71442    11.72620    -3.78984
   101   2    -3.78384    11.72180    -4.02020
   102   2    -0.05410    11.91550    -3.88611
   103   2     3.92169    11.76600    -4.01885
   104   2     7.79361    11.66820    -3.91079
   105   1     0.06739   -15.72230     0.01485
   106   1    -7.95755   -11.73900     0.01689
   107   1    -3.98011   -11.84650     0.03138
   108   1     0.04163   -11.75890    -0.03919
   109   1     3.92643   -11.80090    -0.02933
   110   1     7.94721   -11.78920    -0.01696
   111   1   -11.81680    -7.77365     0.08543
   112   1    -7.82388    -7.76980    -0.04894
   113   1    -3.83674    -7.92705    -0.08932
   114   1     0.08729    -7.88290     0.07696
   115   1     3.91325    -7.86048     0.03409
   116   1     7.86924    -7.90907    -0.03606
   117   1    11.86310    -7.98950    -0.00989
   118   1   -11.76190    -4.01225    -0.04295
   119   1    -7.88260    -3.89160    -0.10265
   120   1    -3.76768    -3.91966    -0.00882
   121   1     0.02453    -3.93545     0.12400
   122   1     3.95168    -3.91182     0.00379
   123   1     7.84026    -3.84893    -0.14802
   124   1    11.80690    -3.89244     0.04323
   125   1   -15.75690    -0.10179    -0.12611
   126   1   -11.77730    -0.10738    -0.03875
   127   1    -7.79248    -0.01921     0.05320
   128   1    -3.84150    -0.06473    -0.01241
   129   1     0.04373    -0.09263     0.15272
   130   1     3.90721    -0.02058    -0.01929
   131   1     7.83055    -0.04674    -0.11964
   132   1    11.77220     0.02998     0.06533
   133   1    15.59070    -0.03321     0.06504
   134   1   -11.82710     3.83390    -0.07506
   135   1    -7.75477     3.91584    -0.06604
   136   1    -3.79579     3.86368     0.01497
   137   1     0.08273     3.98261     0.04011
   138   1     3.89373     3.96660     0.03222
   139   1     7.79162     3.88184     0.03114
   140   1    11.77250     4.04108     0.08979
   141   1   -11.72230     7.77426    -0.10348
   142   1    -7.82395     7.81612    -0.00150
   143   1    -3.76524     7.79492    -0.05804
   144   1     0.01882     7.89283     0.00247
   145   1     3.84794     7.93371     0.08894
   146   1     7.83984     7.87916     0.00162
   147   1    11.81570     7.94074     0.04437
   148   1    -7.79878    11.83170    -0.02076
   149   1    -3.82275    11.80310     0.01455
   150   1     0.07531    11.81930    -0.08458
   151   1     3.97386    11.76910    -0.03267
   152   1     7.81417    11.81030     0.04588
   153   1    -0.01524    15.61010     0.00512
   154   2    -8.02617   -11.75240     4.05176
   155   2    -3.96998   -11.73080     3.90299
   156   2     0.03100   -11.75810     3.84305
   157   2     3.95896   -11.79060     3.92167
   158   2     7.86662   -11.77900     3.88601
   159   2   -11.76680    -7.59116     3.86861
   160   2    -7.90697    -7.74124     3.94470
   161   2    -3.98207    -7.75346     3.84279
   162   2     0.17428    -7.85917     4.00334
   163   2     3.92540    -7.93791     3.83622
   164   2     7.89696    -7.84005     3.82447
   165   2    11.81010    -7.95419     3.91834
   166   2   -11.83920    -3.82546     4.09108
   167   2    -7.81303    -4.02663     3.95553
   168   2    -3.93463    -3.99459     4.02472
   169   2     0.10395    -3.95330     4.05796
   170   2     3.99120    -3.98929     3.95350
   171   2     7.81131    -4.00561     3.98212
   172   2    11.65840    -3.93384     3.93992
   173   2   -11.79480    -0.01563     3.88085
   174   2    -7.79858    -0.01972     3.85868
   175   2    -3.86191    -0.06327     3.98814
   176   2    -0.01110    -0.03679     4.06792
   177   2     3.89300    -0.04295     4.01748
   178   2     7.87230     0.11880     4.00017
   179   2    11.66030     0.04780     3.97991
   180   2   -11.70970     3.77439     3.78632
   181   2    -7.78028     3.98352     3.93750
   182   2    -3.87154     3.96659     3.91640
   183   2     0.16434     3.98624     4.03172
   184   2     3.97339     3.90667     3.97489
   185   2     7.74473     3.97063     4.00111
   186   2    11.75220     3.99797     3.93620
   187   2   -11.74110     7.65531     3.76564
   188   2    -7.87739     7.69356     3.96980
   189   2    -3.83922     7.79862     3.88806
   190   2    -0.00301     7.94409     3.87964
   191   2     3.96367     7.92204     4.09663
   192   2     7.84888     7.90900     4.05117
   193   2    11.68860     7.97173     3.87519
   194   2    -7.77530    11.70330     3.92906
   195   2    -3.93721    11.83290     3.87549
   196   2    -0.06963    11.85360     3.93578
   197   2     3.91671    11.83280     3.94158
   198   2     7.80397    11.82600     3.99171
   199   2    -4.02692   -11.57860     7.69331
   200   2    -0.02477   -11.76700     7.85528
   201   2     3.93613   -11.76390     7.91359
   202   2    -7.88586    -7.71377     7.90660
   203   2    -3.99194    -7.89530     7.76365
   204   2     0.00238    -7.96442     7.95045
   205   2     3.92805    -7.87979     7.88976
   206   2     7.88012    -7.95632     7.82192
   207   2   -11.81770    -3.83771     7.78511
   208   2    -7.77609    -3.83924     7.84930
   209   2    -4.01541    -4.03494     7.93484
   210   2     0.03021    -4.00179     7.97727
   211   2     3.94585    -3.96518     7.86753
   212   2     7.80645    -4.00234     7.93870
   213   2    11.72950    -3.87792     7.74120
   214   2   -11.77050     0.04545     7.87687
   215   2    -7.80893    -0.01233     7.86027
   216   2    -4.01135     0.04330     7.77543
   217   2     0.06046     0.06430     8.00477
   218   2     3.99130    -0.00523     7.92410
   219   2     7.87183    -0.01231     7.94217
   220   2    11.61320     0.05893     7.87838
   221   2   -11.76080     3.87688     7.68657
   222   2    -7.91950     3.93702     7.88929
   223   2    -3.91086     3.88569     7.90755
   224   2    -0.07668     4.00490     7.95230
   225   2     3.94692     3.89517     8.01013
   226   2     7.83152     4.12683     7.91620
   227   2    11.69420     3.90033     7.87301
   228   2    -7.88350     7.86829     7.83448
   229   2    -3.97973     7.93401     7.78388
   230   2     0.04684     7.76780     7.85063
   231   2     3.91333     7.89132     7.82234
   232   2     7.83950     7.98830     7.91893
   233   2    -3.89657    11.75430     7.70952
   234   2     0.00386    11.82920     7.71811
   235   2     3.95381    11.74480     7.77282
   236   2    -3.94692    -7.77462    11.72610
   237   2    -0.03567    -7.87368    11.81380
   238   2     3.99915    -7.92743    11.79460
   239   2    -7.86979    -3.84733    11.81300
   240   2    -3.90514    -3.98274    11.82280
   241   2    -0.01221    -4.10235    11.81340
   242   2     3.88682    -3.94074    11.83650
   243   2     7.81944    -4.05391    11.82770
   244   2    -7.84047    -0.03813    11.81740
   245   2    -3.84108    -0.03605    11.81340
   246   2    -0.01079    -0.03487    11.96250
   247   2     3.90926     0.01073    11.79130
   248   2     7.82031    -0.01923    11.77270
   249   2    -7.72213     3.95822    11.81160
   250   2    -3.84328     3.99066    11.73360
   251   2     0.01936     3.92349    11.99440
   252   2     3.88937     3.97914    11.78240
   253   2     7.85435     4.10970    11.78700
   254   2    -3.87392     7.88343    11.72280
   255   2    -0.03143     8.02304    11.81820
   256   2     3.82999     7.94256    11.69420
   257   2     0.02996     0.00479    15.70540
   258   2    -1.85887    -1.87871   -15.56120
   259   2     1.99185    -1.88030   -15.80160
   260   2    -2.01796     1.85758   -15.65250
   261   2     1.88235     1.87557   -15.70950
   262   2    -2.06830    -9.78033   -11.80730
   263   2     1.98001    -9.88557   -11.83050
   264   2    -5.78884    -5.88669   -11.70490
   265   2    -1.88496    -5.88777   -11.73310
   266   2     1.92995    -5.86165   -11.91790
   267   2     5.69417    -5.93794   -11.86680
   268   2    -9.60184    -1.93668   -11.63290
   269   2    -5.85378    -1.86230   -11.73650
   270   2    -1.88275    -1.97998   -11.89330
   271   2     1.97034    -1.88299   -11.89540
   272   2     5.74582    -2.00615   -11.92860
   273   2     9.67513    -2.07694   -11.80510
   274   2    -9.66454     2.07143   -11.57980
   275   2    -5.86902     1.95539   -11.68850
   276   2    -1.98195     2.04928   -11.80170
   277   2     1.94130     2.01831   -11.83610
   278   2     5.87214     1.99087   -11.83010
   279   2     9.73421     1.90769   -11.79710
   280   2    -5.86774     5.78830   -11.63320
   281   2    -2.03219     5.79821   -11.74310
   282   2     1.87941     5.88980   -11.93360
   283   2     5.78619     5.93184   -11.84820
   284   2    -2.11928     9.83968   -11.79440
   285   2     1.85388     9.89147   -12.02210
   286   2    -1.99064   -13.66510    -7.88606
   287   2     1.99819   -13.65310    -7.87398
   288   2    -9.58785    -9.77199    -7.95627
   289   2    -5.83099    -9.74704    -7.81443
   290   2    -2.04102    -9.81808    -7.89956
   291   2     1.89516    -9.77321    -7.80316
   292   2     5.72220    -9.88283    -7.90128
   293   2     9.58361    -9.87906    -7.99596
   294   2    -9.91216    -5.92927    -7.89859
   295   2    -5.85354    -5.92448    -7.78080
   296   2    -1.93050    -5.87185    -7.73960
   297   2     1.98896    -5.97732    -7.84835
   298   2     5.84902    -5.88951    -7.92967
   299   2     9.68724    -5.95323    -7.78803
   300   2   -13.65540    -1.84461    -7.74654
   301   2    -9.78482    -1.92463    -7.85536
   302   2    -5.85117    -1.95111    -7.89426
   303   2    -1.91663    -2.00660    -7.86525
   304   2     1.91997    -2.00766    -7.97377
   305   2     5.85921    -1.88666    -7.94277
   306   2     9.75983    -2.04957    -7.92712
   307   2    13.72100    -2.02338    -7.98983
   308   2   -13.67130     1.95687    -7.83631
   309   2    -9.70147     1.96531    -7.79135
   310   2    -5.75730     2.00309    -7.78160
   311   2    -1.89765     1.93349    -7.91237
   312   2     2.09072     2.04698    -7.87650
   313   2     5.96286     2.02585    -8.00413
   314   2     9.80149     1.96924    -7.96155
   315   2    13.65220     2.02226    -7.88383
   316   2    -9.81484     5.86201    -7.65900
   317   2    -5.85613     5.90840    -7.76941
   318   2    -1.95375     5.96798    -7.79221
   319   2     1.93968     5.77272    -7.83601
   320   2     5.80233     5.93594    -7.98976
   321   2     9.69501     5.92033    -7.97454
   322   2    -9.72597     9.81620    -7.83547
   323   2    -5.91166     9.85369    -7.77735
   324   2    -1.85637     9.72483    -7.88905
   325   2     1.96658     9.75814    -7.85534
   326   2     5.82064     9.77017    -7.75607
   327   2     9.65633     9.89126    -7.91725
   328   2    -1.93947    13.72380    -7.86868
   329   2     1.94892    13.58890    -7.75640
   330   2    -5.98756   -13.50610    -3.92086
   331   2    -2.01099   -13.71360    -3.90420
   332   2     2.04374   -13.86110    -3.89536
   333   2     5.90377   -13.72710    -4.14269
   334   2    -9.76465    -9.76592    -3.87824
   335   2    -5.84423    -9.81774    -3.91493
   336   2    -1.92855    -9.84194    -3.95137
   337   2     2.03092    -9.80396    -3.94078
   338   2     5.99895    -9.82239    -3.93095
   339   2     9.75339    -9.85499    -3.94873
   340   2   -13.79140    -5.91134    -3.98378
   341   2    -9.79027    -5.76336    -3.93116
   342   2    -5.87593    -5.85963    -3.85952
   343   2    -1.93582    -5.92553    -3.92662
   344   2     2.01707    -5.97451    -3.90002
   345   2     5.98231    -5.87641    -3.94320
   346   2     9.76954    -5.88981    -4.00726
   347   2    13.60840    -5.73827    -3.99633
   348   2   -13.68290    -1.98620    -4.00439
   349   2    -9.79843    -1.96054    -3.99403
   350   2    -5.83736    -1.94810    -3.90499
   351   2    -1.86890    -1.96633    -3.86321
   352   2     1.95332    -1.99018    -3.91933
   353   2     5.92250    -1.96153    -3.96314
   354   2     9.78403    -1.99410    -3.99219
   355   2    13.67870    -1.91403    -3.98154
   356   2   -13.74860     1.92801    -3.87659
   357   2    -9.70269     1.87889    -3.89549
   358   2    -5.76609     2.01420    -3.91343
   359   2    -1.93818     1.96265    -3.90413
   360   2     2.03052     1.94196    -3.86302
   361   2     5.85957     1.88703    -3.89751
   362   2     9.81199     1.94166    -3.97347
   363   2    13.67810     2.05306    -3.89214
   364   2   -13.50240     5.74366    -3.80735
   365   2    -9.76632     5.88936    -3.94051
   366   2    -5.84861     5.85011    -3.90428
   367   2    -1.92679     5.81343    -3.95068
   368   2     1.92693     5.84193    -3.84655
   369   2     5.86764     5.88963    -3.88358
   370   2     9.83896     6.00651    -3.92340
   371   2    13.53800     6.00907    -3.94604
   372   2    -9.71990     9.75168    -3.80196
   373   2    -5.81717     9.78677    -3.94009
   374   2    -1.94864     9.76346    -4.02998
   375   2     1.95166     9.85622    -3.92500
   376   2     5.88201     9.82466    -3.83880
   377   2     9.65470     9.73583    -3.88766
   378   2    -5.71484    13.66620    -3.96198
   379   2    -1.93576    13.94170    -4.00144
   380   2     1.95546    13.75860    -3.98715
   381   2     5.87800    13.58920    -3.76327
   382   1    -6.07149   -13.66440    -0.00525
   383   1    -1.92408   -13.73970    -0.07687
   384   1     2.01331   -13.67470     0.02436
   385   1     5.96765   -13.74940    -0.04628
   386   1    -9.82267    -9.74667    -0.04748
   387   1    -5.87460    -9.86625    -0.01092
   388   1    -1.90557    -9.87641     0.05421
   389   1     2.01314    -9.92706     0.02936
   390   1     5.99560    -9.90558    -0.02247
   391   1     9.78796    -9.80177     0.00692
   392   1   -13.80990    -5.90041     0.02577
   393   1    -9.78929    -5.90351     0.07141
   394   1    -5.85071    -5.99659    -0.00202
   395   1    -1.88174    -5.85134    -0.06272
   396   1     1.99744    -5.86103     0.10848
   397   1     5.91420    -5.93015    -0.00085
   398   1     9.87933    -5.86385     0.07421
   399   1    13.68880    -5.91209     0.03989
   400   1   -13.77630    -2.02092    -0.11956
   401   1    -9.84098    -1.98793     0.00948
   402   1    -5.79787    -2.05919    -0.00129
   403   1    -1.84699    -1.99466     0.08260
   404   1     2.03318    -1.93834     0.12246
   405   1     5.89392    -1.95717     0.04460
   406   1     9.84069    -1.88078    -0.05264
   407   1    13.59230    -1.93942     0.05169
   408   1   -13.74020     1.88679    -0.11485
   409   1    -9.79606     1.91174     0.03219
   410   1    -5.80133     1.97018     0.07756
   411   1    -1.80488     1.85323     0.04358
   412   1     2.03887     1.94236     0.07227
   413   1     5.82968     1.97213     0.07830
   414   1     9.82452     1.93643    -0.00282
   415   1    13.69180     2.08126     0.04306
   416   1   -13.88130     5.75618    -0.11974
   417   1    -9.77934     5.86070     0.00031
   418   1    -5.87438     5.92391    -0.06330
   419   1    -1.82784     5.84417     0.00319
   420   1     1.93963     5.92903     0.01036
   421   1     5.79334     5.96277     0.09560
   422   1     9.85525     5.87670     0.05536
   423   1    13.79720     5.90594     0.07948
   424   1    -9.71330     9.80182    -0.05092
   425   1    -5.77321     9.86969    -0.00490
   426   1    -1.96632     9.81768    -0.04847
   427   1     1.94755     9.89415    -0.05577
   428   1     5.87564     9.84897     0.02900
   429   1     9.76077     9.88624     0.02207
   430   1    -5.82988    13.80390    -0.04060
   431   1    -2.02391    13.80770    -0.06737
   432   1     2.03957    13.70250     0.00438
   433   1     5.81241    13.76850     0.02733
   434   2    -5.90577   -13.68990     3.82728
   435   2    -2.00862   -13.74150     3.92274
   436   2     2.02422   -13.73630     3.86918
   437   2     5.90417   -13.67940     3.72576
   438   2    -9.80846    -9.59313     3.93361
   439   2    -5.97971    -9.78937     3.79363
   440   2    -1.97874    -9.83290     3.85670
   441   2     2.02413    -9.89795     3.93184
   442   2     5.97727    -9.88414     3.82355
   443   2     9.79254    -9.79268     3.87673
   444   2   -13.82220    -5.72838     3.97037
   445   2    -9.78920    -5.82345     3.93303
   446   2    -5.89885    -5.94437     3.96189
   447   2    -1.89582    -5.82517     4.11504
   448   2     1.99392    -5.98495     3.96789
   449   2     5.86933    -5.93520     3.95098
   450   2     9.74106    -5.92886     3.92403
   451   2    13.77030    -5.89028     3.93067
   452   2   -13.80250    -1.90255     3.81179
   453   2    -9.75934    -1.94952     3.92173
   454   2    -5.88325    -2.00983     3.91947
   455   2    -1.92458    -1.94287     4.03468
   456   2     1.98338    -1.96673     4.00422
   457   2     6.02479    -1.97685     3.94121
   458   2     9.76467    -1.94950     3.99758
   459   2    13.70150    -1.86503     4.00718
   460   2   -13.77850     1.94901     3.83752
   461   2    -9.78858     1.86789     3.85458
   462   2    -5.69017     1.92453     3.93308
   463   2    -1.94219     1.94735     4.00956
   464   2     1.97604     1.95342     4.04017
   465   2     5.76039     1.90715     3.97264
   466   2     9.84054     2.00242     4.03170
   467   2    13.62530     2.05215     3.92198
   468   2   -13.70640     5.69097     3.64935
   469   2    -9.86046     5.84418     3.85260
   470   2    -5.77275     6.02751     3.89834
   471   2    -1.81457     5.85585     3.97139
   472   2     1.99375     5.88578     3.94656
   473   2     5.86938     5.98154     3.88777
   474   2     9.69710     5.97347     3.93914
   475   2    13.68350     5.94231     3.96457
   476   2    -9.69093     9.53264     3.91525
   477   2    -5.80227     9.77896     3.89443
   478   2    -1.96985     9.77194     3.85175
   479   2     2.00811     9.83736     3.93646
   480   2     5.89458     9.80908     3.90955
   481   2     9.78591     9.85513     3.88221
   482   2    -5.90141    13.77510     3.88157
   483   2    -1.98153    13.72150     3.85142
   484   2     1.92142    13.62240     3.91014
   485   2     5.95663    13.78850     4.02531
   486   2    -1.97947   -13.64110     7.74652
   487   2     2.00420   -13.62820     7.92141
   488   2    -9.87303    -9.58243     7.83338
   489   2    -6.15454    -9.78818     7.89567
   490   2    -1.98190    -9.78128     7.78554
   491   2     1.93373    -9.80963     7.82519
   492   2     5.91399    -9.90520     7.85186
   493   2     9.61241    -9.86727     7.73148
   494   2    -9.85880    -5.73329     7.93612
   495   2    -5.83619    -5.99274     8.04976
   496   2    -1.97317    -5.95391     7.85989
   497   2     1.97089    -5.96739     7.93031
   498   2     5.93518    -5.91002     7.93821
   499   2     9.89165    -6.00617     7.83475
   500   2   -13.75220    -1.95169     7.73317
   501   2    -9.73380    -1.94502     7.86929
   502   2    -5.90495    -1.93604     7.81816
   503   2    -1.93046    -2.04026     7.96268
   504   2     1.95961    -2.06653     7.89127
   505   2     5.88094    -1.90378     7.95243
   506   2     9.75559    -1.99158     7.95981
   507   2    13.49990    -2.02023     7.84068
   508   2   -13.63730     1.97951     7.77034
   509   2    -9.73687     1.97189     7.89833
   510   2    -6.01212     2.04032     7.87932
   511   2    -1.91250     2.02869     7.86485
   512   2     2.02244     2.00511     7.90459
   513   2     5.89554     1.97964     7.98181
   514   2     9.76783     1.99317     7.98124
   515   2    13.50720     1.86414     7.75381
   516   2    -9.76910     5.83438     7.78673
   517   2    -5.99874     5.88473     7.84359
   518   2    -1.99550     5.97798     7.94731
   519   2     1.98268     5.85615     7.95212
   520   2     5.91205     6.07983     7.95169
   521   2     9.84349     5.91205     7.97595
   522   2    -9.81893     9.66069     7.66966
   523   2    -5.96738     9.84454     7.83058
   524   2    -1.98244     9.83149     7.76142
   525   2     1.88310     9.83297     7.79648
   526   2     5.90566     9.90419     7.90898
   527   2     9.82266     9.92227     7.90179
   528   2    -1.89834    13.65060     7.75019
   529   2     1.87112    13.81610     7.55837
   530   2    -2.07257    -9.70851    11.76050
   531   2     1.97569    -9.70139    11.64510
   532   2    -5.86946    -5.80124    11.85160
   533   2    -2.01950    -6.02416    11.84920
   534   2     1.96746    -5.94491    11.84130
   535   2     5.79090    -5.83225    11.85270
   536   2    -9.71090    -1.89948    11.69110
   537   2    -5.92208    -1.92082    11.82150
   538   2    -1.90797    -1.93345    11.84120
   539   2     2.02892    -1.97228    11.84450
   540   2     5.90429    -2.05664    11.79900
   541   2     9.78109    -2.03258    11.78130
   542   2    -9.68642     2.03004    11.91080
   543   2    -5.78990     1.85731    11.71430
   544   2    -1.88929     1.97078    11.93140
   545   2     1.92880     1.94823    11.90220
   546   2     5.83765     1.92485    11.79730
   547   2     9.67073     2.02746    11.85290
   548   2    -5.90848     5.93180    11.76670
   549   2    -2.03520     6.00745    11.80030
   550   2     1.79844     6.04198    11.82770
   551   2     5.71239     5.91745    11.69090
   552   2    -1.88821     9.80156    11.65400
   553   2     1.98509     9.88273    11.72610
   554   2    -1.82063    -2.08330    15.73780
   555   2     1.91603    -1.99840    15.71880
   556   2    -1.83085     1.92033    15.68300
   557   2     1.99288     1.80439    15.69210
   558   1    -1.95549   -15.65420    -1.91755
   559   1     1.92563   -15.68320    -1.72765
   560   1    -1.99043   -15.63270     1.81547
   561   1     1.93816   -15.55190     1.85042
   562   2    -2.08455   -11.71360    -9.77404
   563   2     1.93693   -11.80240    -9.76312
   564   2    -5.92193   -11.76440    -5.99870
   565   2    -1.97476   -11.76990    -5.92983
   566   2     1.92478   -11.72730    -5.96897
   567   2     5.86847   -11.75660    -6.04372
   568   1    -9.85483   -11.67290    -1.92953
   569   1    -5.97461   -11.72310    -1.92949
   570   2    -1.95477   -11.78930    -2.06247
   571   1     2.07814   -11.77620    -1.91511
   572   2     5.90719   -11.74290    -2.10020
   573   1     9.72904   -11.67580    -1.98339
   574   1    -9.95245   -11.55690     1.88597
   575   1    -6.03370   -11.73190     2.02501
   576   1    -1.88872   -11.86240     1.89452
   577   1     1.92536   -11.69530     1.99526
   578   1     6.00715   -11.80790     1.87227
   579   1     9.72809   -11.75150     1.99462
   580   2    -5.96422   -11.72210     5.78759
   581   2    -1.89770   -11.81810     5.78856
   582   2     2.03106   -11.82100     5.93762
   583   2     5.92718   -11.85020     5.81159
   584   2    -2.06949   -11.66790     9.71744
   585   2     1.97653   -11.69730     9.79890
   586   2    -2.01938    -7.76562   -13.61280
   587   2     1.90069    -7.89793   -13.75800
   588   2    -9.76887    -7.77090    -9.76885
   589   2    -5.91184    -7.74919    -9.78532
   590   2    -1.90095    -7.80115    -9.85332
   591   2     1.97023    -7.84618    -9.89537
   592   2     5.69219    -7.90000    -9.89742
   593   2     9.59757    -7.86024    -9.88117
   594   2    -9.76367    -7.84027    -5.77151
   595   2    -5.86997    -7.89245    -5.89716
   596   2    -1.88434    -7.81566    -5.90830
   597   2     1.95657    -7.82888    -5.92297
   598   2     5.95223    -7.92741    -5.92887
   599   2     9.74609    -7.82845    -5.92901
   600   1   -13.76910    -7.79790    -1.80906
   601   1    -9.82159    -7.72763    -1.97794
   602   1    -5.85300    -7.92876    -1.95993
   603   1    -1.94446    -7.87693    -1.96186
   604   1     1.98603    -7.89259    -1.88919
   605   2     5.88289    -7.88503    -2.05088
   606   1     9.91180    -7.83589    -1.94667
   607   2    13.70540    -7.66513    -2.10796
   608   2   -13.71990    -7.78065     2.09761
   609   1    -9.72058    -7.75852     1.88291
   610   1    -5.81589    -7.88122     1.88589
   611   2    -1.91265    -7.79831     2.11717
   612   1     2.06302    -7.96158     2.00820
   613   1     5.91072    -7.95765     1.91465
   614   1     9.81986    -7.88086     1.95365
   615   1    13.67580    -7.72795     1.98364
   616   2    -9.97496    -7.72599     5.98628
   617   2    -5.92763    -7.87758     5.85872
   618   2    -1.94571    -7.80818     5.92006
   619   2     2.00565    -7.84691     5.99436
   620   2     5.91896    -8.03212     5.90254
   621   2     9.82770    -7.89002     5.82587
   622   2    -9.82024    -7.67988     9.72892
   623   2    -5.94737    -7.87016     9.87701
   624   2    -2.04927    -7.92902     9.67133
   625   2     1.95626    -7.80890     9.83878
   626   2     5.88207    -7.87558     9.83818
   627   2     9.79074    -7.91766     9.63544
   628   2    -2.15493    -7.85106    13.78690
   629   2     1.98135    -7.80818    13.64590
   630   2    -5.83759    -3.87127   -13.73210
   631   2    -1.87364    -4.06116   -13.86790
   632   2     1.93329    -3.81262   -13.93600
   633   2     5.80547    -3.97262   -13.86840
   634   2    -9.72354    -3.91187    -9.78735