4321
 Atoms. Timestep: 10782
2 0.0442375 -7.60728 -22.6836
2 -3.86887 -3.88031 -22.746
1 -0.0603481 -3.78135 -22.9182
1 3.78449 -3.82115 -22.7502
2 -7.61151 0.031333 -22.6468
3 -3.93454 -0.192244 -22.6911
1 0.0721837 -0.0629786 -22.7145
2 3.77312 -0.031999 -22.8565
1 7.6287 -0.0612487 -22.6809
1 -3.68728 3.74075 -22.6714
3 0.0687693 3.62243 -22.7655
2 3.99373 3.5136 -22.807
1 -0.48219 7.82288 -22.0554
1 -8.07304 -11.6525 -18.7984
2 -3.60543 -11.4005 -18.9131
3 0.249534 -11.5521 -19.0102
2 3.97725 -11.3688 -18.8906
2 7.56163 -11.656 -18.8041
2 -11.77 -7.75864 -19.0146
1 -7.547 -7.59994 -19.0871
1 -3.49897 -7.6698 -18.9464
3 -0.0230246 -7.91383 -19.0977
3 3.77952 -7.73802 -18.911
3 7.60323 -7.6336 -18.8526
2 11.652 -7.81646 -18.8357
2 -12.0012 -4.18667 -19.286
3 -7.65225 -3.80629 -18.7371
3 -3.72481 -3.68162 -19.0069
1 0.144346 -3.80985 -18.9512
1 3.84512 -3.78091 -18.9156
2 7.49495 -3.87667 -19.0888
3 11.4134 -3.78939 -19.0949
2 -11.6973 0.0691054 -19.0754
3 -7.54974 0.161976 -18.9687
2 -3.77869 -0.0579283 -18.9873
2 0.0556718 -0.0582222 -19.0615
3 3.75983 0.0150096 -18.9416
3 7.64683 -0.0522838 -19.2257
2 11.5991 0.10753 -19.1954
3 -11.5152 3.85159 -18.9538
2 -7.92975 3.83942 -19.1255
1 -3.86066 3.74262 -19.1428
1 0.22895 3.78392 -18.9846
3 3.79248 3.75637 -18.9861
2 7.58165 3.71644 -19.002
2 11.5205 4.15281 -19.1823
3 -11.398 7.84156 -19.0354
2 -7.55144 7.72565 -19.1475
2 -3.66484 7.6737 -19.1256
1 -0.057877 7.79087 -19.2587
3 3.90436 7.64988 -19.1256
1 7.59927 7.7104 -19.0434
2 11.3267 8.19993 -18.8696
1 -7.63147 11.5671 -18.9463
2 -4.11762 11.6111 -19.1429
1 0.123413 12.5807 -20.0039
3 4.0158 11.4699 -19.0497
3 7.73694 11.2263 -18.9548
3 -7.6525 -15.2488 -15.0046
1 -3.76252 -16.4324 -16.0993
3 0.0211598 -15.5005 -15.2452
3 3.86935 -15.2956 -15.3051
1 7.77512 -15.1986 -15.0748
2 -11.5019 -11.6447 -15.2774
1 -7.84871 -11.4991 -15.6486
3 -3.75439 -11.4234 -15.3759
3 0.28611 -11.5012 -15.1803
3 3.87327 -11.5652 -15.2436
1 7.72719 -11.5753 -15.2654
1 11.6759 -11.9883 -15.6658
2 -15.7157 -8.43481 -15.5327
2 -11.7143 -7.51494 -15.2535
2 -7.66118 -7.6084 -15.2601
2 -3.71537 -7.62403 -15.3621
3 0.0361547 -7.65642 -15.305
3 3.90607 -7.67912 -15.3105
2 7.7753 -7.75595 -15.193
1 11.6885 -7.61635 -15.45
2 15.5283 -8.27922 -15.5268
2 -15.5773 -3.98667 -15.4431
3 -11.5024 -3.60557 -15.189
1 -7.5411 -3.74959 -15.2307
1 -3.81573 -3.69676 -15.3689
2 0.0747838 -3.86781 -15.2706
2 3.87887 -3.78006 -15.2236
3 7.56382 -3.85122 -15.0802
1 11.4927 -3.95392 -15.365
1 15.4447 -3.93538 -15.5432
1 -15.3004 0.0811348 -15.1856
1 -11.708 0.291162 -15.1624
1 -7.73283 0.0351968 -15.126
2 -3.80691 0.1695 -15.2126
3 0.00975035 -0.00508587 -15.2526
2 3.77187 0.0679097 -15.305
3 7.73632 -0.00965852 -15.2392
1 11.7183 0.0979128 -15.3208
2 15.4006 -0.0245259 -15.5433
3 -15.3285 4.09912 -15.4347
1 -11.5039 3.85705 -15.1389
3 -7.74877 3.97397 -15.1766
2 -3.68451 3.74059 -15.2039
3 -0.0372252 3.96415 -15.2596
1 3.88436 3.79772 -15.242
1 7.60799 3.77918 -15.3003
2 11.3988 3.78823 -15.3144
2 15.4877 3.98135 -15.3182
2 -15.5751 8.01996 -15.582
2 -11.5588 7.60091 -15.4294
1 -7.67702 7.72731 -15.3545
2 -3.76354 7.85995 -15.4152
2 0.0912207 7.60789 -15.2446
1 3.8174 7.52801 -15.2817
3 7.64637 7.75934 -15.2473
2 11.3968 7.55125 -15.1858
3 15.0775 7.81175 -15.2281
2 -11.7483 11.594 -15.3978
2 -7.67554 11.3791 -15.3876
2 -3.82867 11.6048 -15.2558
2 -0.0870462 11.5674 -15.2488
1 3.93593 11.4584 -15.2699
2 7.62637 11.4865 -15.189
1 11.5015 11.4804 -15.2089
2 -7.80853 15.4515 -15.2225
3 -3.84293 15.2864 -15.1055
1 -0.0644412 15.2441 -15.3483
1 3.97213 15.454 -15.349
2 7.74814 14.964 -15.1625
1 -7.71937 -19.1656 -11.6164
3 -3.52595 -19.141 -11.6408
2 0.271451 -19.1522 -11.5049
2 4.06166 -18.9606 -11.6113
1 8.12271 -18.9888 -11.4422
2 -11.603 -15.6475 -11.891
2 -7.4396 -15.0688 -11.3794
2 -3.74546 -15.1561 -11.3395
2 -0.110251 -15.3649 -11.4931
2 3.98819 -15.3154 -11.423
1 7.8207 -15.2957 -11.4454
2 11.7781 -15.3884 -11.3906
2 -15.3326 -11.1491 -11.2862
3 -11.4333 -11.1578 -11.4011
2 -7.39773 -11.4662 -11.2536
2 -3.76204 -11.4568 -11.2451
2 0.17753 -11.5507 -11.4445
3 3.96092 -11.5838 -11.4843
2 7.82348 -11.4818 -11.4342
2 11.6297 -11.5016 -11.5088
3 15.5155 -11.2031 -11.3557
1 -19.2271 -7.71563 -11.4533
1 -15.0311 -7.46095 -11.3568
2 -11.3493 -7.49142 -11.2789
2 -7.51334 -7.52806 -11.5645
2 -3.55024 -7.692 -11.398
2 0.0924882 -7.69977 -11.4357
2 3.88927 -7.56129 -11.4315
3 7.68814 -7.65918 -11.4059
3 11.5783 -7.67863 -11.6444
1 15.4006 -7.69538 -11.4624
1 19.1385 -7.80185 -11.8437
2 -19.0936 -3.95094 -11.6832
2 -15.2045 -3.68196 -11.2255
2 -11.3306 -3.73106 -11.3967
3 -7.5123 -3.75617 -11.401
2 -3.67296 -3.76136 -11.6025
2 0.13896 -3.70496 -11.4203
2 3.90993 -3.83122 -11.4575
1 7.58424 -3.75828 -11.53
1 11.5151 -3.88158 -11.4268
2 15.5081 -3.71943 -11.506
1 20.5553 -5.8359 -11.3333
3 -19.1331 -0.0216325 -11.5324
1 -15.4444 0.132838 -11.4608
2 -11.589 0.154007 -11.4434
2 -7.60599 0.199296 -11.6129
1 -3.85396 0.216898 -11.389
2 0.076664 -0.0826948 -11.3878
2 3.79237 -0.108929 -11.3646
2 7.41312 -0.0415274 -11.3978
1 11.6254 -0.0142951 -11.551
2 15.3066 -0.0516118 -11.3566
1 19.7429 -0.915724 -11.6
3 -18.9818 4.01403 -11.5833
1 -15.479 4.03026 -11.6392
2 -11.4064 4.0108 -11.4412
1 -7.64628 3.84397 -11.4915
2 -3.6971 3.90934 -11.5654
3 0.0472034 3.87112 -11.3949
3 3.98577 3.71276 -11.433
1 7.56193 3.65822 -11.327
2 11.4337 3.81222 -11.3636
1 15.4817 3.79207 -11.4237
1 18.9666 3.73984 -11.6828
3 -18.9286 7.79021 -11.3357
2 -15.4565 7.68391 -11.5659
2 -11.5246 7.93662 -11.4873
1 -7.62274 7.81994 -11.5191
1 -3.84047 7.7902 -11.4692
1 -0.062135 7.65709 -11.294
2 3.80185 7.62761 -11.3678
1 7.76144 7.58448 -11.5147
1 11.3712 7.59732 -11.39
3 15.2001 7.50505 -11.3863
2 18.7965 7.46877 -11.4928
3 -15.1753 11.4734 -11.5591
2 -11.4794 11.5484 -11.5429
3 -7.5602 11.43 -11.604
2 -3.83449 11.457 -11.5417
2 0.0561529 11.4376 -11.3667
3 3.71145 11.4295 -11.4126
1 7.62856 11.3083 -11.4568
2 11.435 11.2623 -11.4033
3 15.0811 11.1663 -11.3841
2 -11.2841 15.1209 -11.6154
2 -7.75715 15.141 -11.3862
2 -3.85259 15.4146 -11.3206
2 0.0102919 15.393 -11.5461
2 3.79696 15.2881 -11.5437
1 7.59236 15.1167 -11.3795
3 11.6598 15.0354 -11.3629
2 -7.73922 19.0088 -11.5941
2 -3.80046 19.0828 -11.4274
2 0.22104 19.1146 -11.6297
3 3.88795 18.8219 -11.3716
3 7.83049 18.7676 -11.349
2 0.239994 -22.8532 -7.49676
1 -11.6472 -18.9829 -7.90913
2 -7.48382 -18.9947 -7.66606
2 -3.69013 -19.1217 -7.70828
2 0.216213 -19.0386 -7.75282
3 3.99257 -18.9672 -7.46464
2 7.63601 -18.9698 -7.49882
2 11.4403 -18.8822 -7.77334
2 -15.3811 -14.9464 -7.96109
2 -11.264 -15.0945 -7.72937
3 -7.3996 -15.3154 -7.6531
1 -3.68712 -15.1422 -7.5678
3 0.205049 -15.2462 -7.6893
3 3.90949 -15.2301 -7.66736
3 7.78123 -15.3342 -7.58497
1 11.6337 -15.181 -7.64741
1 15.5382 -15.4173 -8.07179
1 -18.8808 -11.2233 -7.48191
3 -15.1068 -11.2694 -7.45513
2 -11.3743 -11.2343 -7.56111
2 -7.60422 -11.5611 -7.55125
3 -3.75359 -11.5338 -7.52306
1 0.0252919 -11.5191 -7.68709
1 3.91046 -11.5434 -7.52392
2 7.63634 -11.5458 -7.46925
2 11.4891 -11.5997 -7.63954
2 15.3269 -11.3848 -7.62474
2 19.0743 -11.4201 -7.73889
1 -18.9967 -7.69313 -7.45394
1 -15.2093 -7.50793 -7.46948
3 -11.3562 -7.60217 -7.49692
1 -7.57654 -7.62784 -7.62742
2 -3.78251 -7.62537 -7.60706
1 0.0478734 -7.74401 -7.70831
1 3.97702 -7.56596 -7.66879
1 7.7645 -7.66608 -7.6695
2 11.5552 -7.60943 -7.79274
1 15.2184 -7.69018 -7.6692
2 19.2646 -7.72109 -7.64826
2 -19.0673 -4.0072 -7.33318
1 -15.2708 -3.5555 -7.42447
1 -11.4643 -3.66418 -7.62953
2 -7.81425 -3.75992 -7.60255
1 -3.78814 -3.85299 -7.7963
2 0.0014042 -3.73551 -7.70835
1 3.79886 -3.73386 -7.60391
1 7.88536 -3.72366 -7.69487
2 11.5206 -3.88593 -7.85299
3 15.165 -3.85229 -7.73874
1 19.1199 -3.9701 -7.50479
1 -22.2964 0.802423 -7.74315
3 -19.1021 0.163259 -7.38184
2 -15.3548 0.205886 -7.60483
2 -11.6218 0.332795 -7.48982
1 -7.58165 0.236524 -7.58563
3 -3.73619 0.0593162 -7.68562
1 0.124014 -0.00937392 -7.59649
2 3.75918 -0.106071 -7.70281
1 7.73249 -0.0342335 -7.62787
2 11.5821 -0.0305052 -7.69097
2 15.3235 -0.00235561 -7.53605
3 19.0684 0.00525117 -7.63645
1 22.8269 -0.160446 -7.46265
2 -19.1186 4.0777 -7.62872
2 -15.3425 3.94745 -7.66736
2 -11.5294 3.97693 -7.55461
1 -7.49779 3.8171 -7.65318
3 -3.74859 3.73687 -7.68432
2 -0.0511763 3.89381 -7.60319
3 3.77389 3.91234 -7.67078
1 7.6803 3.78769 -7.47499
1 11.5354 3.79846 -7.51817
2 15.34 3.75053 -7.51821
2 19.1304 4.01133 -7.64043
2 -19.0229 7.87848 -7.83519
2 -15.4057 7.9304 -7.57977
3 -11.6086 7.77895 -7.67189
1 -7.55136 7.79184 -7.71213
1 -3.79947 7.89046 -7.61497
3 -0.112686 7.70308 -7.62926
1 3.76805 7.64338 -7.64086
3 7.60302 7.74154 -7.51603
3 11.4831 7.63473 -7.60835
3 15.145 7.59428 -7.59325
1 19.0294 7.37915 -7.80103
2 -19.3557 12.0272 -8.24692
3 -15.488 11.6394 -7.56671
2 -11.5351 11.7134 -7.74746
3 -7.79889 11.5457 -7.75172
3 -3.93108 11.4842 -7.59289
2 -0.0868223 11.6605 -7.73025
2 3.71824 11.2492 -7.60816
1 7.60856 11.2774 -7.76895
2 11.4302 11.4787 -7.58948
1 15.3427 11.3975 -7.64057
2 18.8309 11.3359 -7.64919
2 -15.2511 15.3364 -7.91792
2 -11.5766 15.3659 -7.70565
3 -7.57655 15.2157 -7.77769
1 -3.82186 15.2596 -7.69398
3 -0.108918 15.3667 -7.65735
2 3.56702 15.4051 -7.63778
2 7.72798 15.1414 -7.68158
2 11.44 14.968 -7.70405
3 15.2088 15.0299 -7.72902
3 -11.5312 18.8923 -7.73767
3 -7.68748 19.0251 -7.64872
3 -3.85245 19.2229 -7.68357
1 -0.0489069 19.1489 -7.71463
2 3.88187 18.9833 -7.55148
1 7.61844 18.8953 -7.59087
1 11.4243 18.9191 -7.4733
1 0.0673023 22.6882 -7.656
2 -3.89019 -22.8643 -3.83409
2 0.0534867 -22.7627 -3.56894
1 3.75871 -22.766 -3.73016
2 -11.9491 -19.1233 -4.09593
2 -7.72862 -19.3204 -3.76891
1 -3.64995 -19.1519 -3.90511
2 0.13923 -18.9534 -3.94955
3 3.94349 -19.3525 -3.92092
1 7.68068 -19.1605 -3.7637
2 11.6074 -19.2374 -3.71203
2 -15.1533 -15.2351 -3.79414
2 -11.2885 -15.1977 -3.68302
2 -7.66277 -15.38 -3.84087
2 -3.75871 -15.1147 -3.93829
1 0.17775 -15.1877 -3.93226
1 4.01716 -15.2615 -3.74013
1 7.77029 -15.2309 -3.72258
2 11.509 -15.2945 -3.82123
3 15.3184 -15.4495 -3.89887
3 -19.0601 -11.218 -3.73349
3 -15.2325 -11.3744 -3.82594
1 -11.3326 -11.4649 -3.90453
2 -7.56061 -11.4906 -3.88553
1 -3.8476 -11.4209 -3.80196
2 0.059081 -11.5276 -3.7461
2 3.78065 -11.5693 -3.73764
3 7.78091 -11.4871 -3.70075
1 11.5216 -11.6626 -3.73869
1 15.4258 -11.6212 -3.80995
1 18.9455 -11.4372 -3.90651
2 -19.0528 -7.53162 -3.55411
2 -15.1276 -7.54043 -3.85937
1 -11.4715 -7.51134 -3.63276
2 -7.62662 -7.74856 -3.91569
2 -3.81165 -7.64533 -3.8095
3 -0.0559486 -7.57097 -3.82246
3 3.84959 -7.7137 -3.73138
2 7.81243 -7.60403 -3.8758
3 11.3569 -7.55766 -3.86845
3 15.3124 -7.53929 -3.96353
2 19.1394 -7.65353 -3.75626
3 -22.8264 -3.89616 -3.65553
3 -19.0745 -3.77885 -3.70092
2 -15.2377 -3.73995 -3.67026
3 -11.5738 -3.6065 -3.73991
3 -7.79666 -3.81509 -3.94019
2 -3.6782 -3.96536 -3.74789
2 0.00813182 -3.87094 -3.85087
3 3.74661 -3.79363 -3.96155
2 7.47926 -3.89265 -3.76581
1 11.3651 -3.92147 -3.79633
3 15.3488 -3.87227 -3.88764
1 19.0509 -3.96239 -3.87186
2 23.0049 -3.91015 -3.9902
1 -22.8262 0.000326805 -3.61935
2 -19.1171 0.276726 -3.86974
3 -15.3131 0.0803711 -3.76852
2 -11.5406 0.196719 -3.80858
1 -7.59495 0.0908792 -3.87508
1 -3.73398 0.0370277 -3.89177
2 -0.00990084 0.142213 -3.75373
3 3.79888 -0.0234354 -3.85702
3 7.58163 0.101606 -3.79981
2 11.6339 -0.103728 -3.71451
3 15.2657 -0.062311 -3.7748
2 19.1236 0.00648962 -3.85883
2 23.0858 0.170728 -3.75062
3 -22.5831 3.98941 -3.77587
1 -18.9435 3.83045 -3.58694
3 -15.2172 4.05284 -3.7868
2 -11.3841 3.8025 -3.91966
3 -7.62737 3.77107 -3.86815
2 -3.87778 4.01968 -3.82274
1 0.0899121 3.89783 -3.74925
1 3.67028 3.85616 -3.80028
1 7.59013 3.6114 -3.73837
2 11.5677 3.79261 -3.67294
2 15.3209 3.74403 -3.69731
2 19.076 3.92383 -3.67715
2 22.5374 3.79409 -4.2779
2 -18.9724 7.74508 -3.82711
2 -15.1503 7.81083 -3.74893
2 -11.4504 7.80162 -3.82705
2 -7.77709 7.84512 -3.85626
1 -3.84671 7.7831 -3.77475
3 -0.100714 7.73784 -3.75834
3 3.7227 7.70291 -3.84392
2 7.42467 7.70842 -3.82847
2 11.3724 7.52556 -3.81705
2 15.2388 7.54341 -3.93362
3 19.0316 7.58951 -3.88661
1 -19.5937 12.0098 -4.1919
2 -15.2215 11.5769 -3.72394
3 -11.5617 11.6447 -3.86851
3 -7.62542 11.5798 -3.84539
3 -3.80485 11.5558 -3.75287
2 0.0041448 11.496 -3.84463
2 3.614 11.3597 -3.69813
2 7.39258 11.3114 -3.8022
2 11.2777 11.5064 -3.8999
2 15.0766 11.1976 -3.75254
1 19.3104 11.6591 -4.00987
3 -15.2981 15.3366 -3.88279
2 -11.7385 15.3916 -3.7939
2 -7.73507 15.3661 -3.94344
2 -3.92778 15.2696 -3.85234
2 0.0321672 15.0948 -3.77403
2 3.67191 15.2221 -3.59982
3 7.5517 15.2171 -3.77039
1 11.2864 15.002 -3.77484
3 15.1918 15.0219 -3.76834
2 -12.8618 20.4917 -4.02945
2 -7.83803 19.3092 -3.82178
2 -3.92362 19.1301 -4.04987
2 -0.102015 19.1368 -3.82092
1 3.91481 18.8869 -3.65529
3 7.52416 18.9408 -3.74406
1 11.5323 19.7396 -4.89187
3 -3.92597 22.8571 -4.14868
1 0.0252639 22.9053 -3.96016
2 3.87802 22.775 -3.95139
1 -7.65262 -22.7443 -0.0218312
1 -3.95058 -23.2236 -0.0534653
2 0.0669157 -22.8803 0.0712007
3 3.7333 -22.8572 0.0925569
3 7.66145 -22.7417 0.118395
3 -11.3839 -19.0495 0.00435625
2 -7.616 -19.0526 -0.011441
2 -3.88597 -19.1148 -0.138614
3 0.0686711 -19.0394 0.102455
2 3.82292 -19.1415 -0.125416
2 7.6809 -19.1291 0.160615
2 11.4534 -19.0624 0.102036
2 -15.3507 -15.1849 -0.29883
2 -11.4707 -15.3725 -0.0174115
2 -7.46881 -15.4604 -0.0590446
1 -3.78841 -15.422 -0.00090677
3 -0.0146235 -15.3378 -0.0737126
1 3.87611 -15.1845 0.121721
2 7.69164 -15.3321 0.176827
2 11.4927 -15.5315 0.00601985
2 15.2694 -15.4157 0.166537
2 -19.0483 -11.4352 0.112833
1 -15.0755 -11.4173 -0.17368
2 -11.4521 -11.3854 -0.17096
2 -7.48697 -11.5697 -0.150202
1 -3.91139 -11.4989 0.0598992
2 0.161853 -11.5829 0.0407355
2 3.74745 -11.3919 0.227647
3 7.535 -11.3128 -0.0804825
1 11.4387 -11.4963 0.0401997
1 15.2675 -11.5828 0.105772
3 19.0616 -11.6809 0.0636545
2 -22.6272 -7.71047 0.136828
2 -18.8509 -7.49849 0.258528
3 -14.9596 -7.47663 0.000749037
2 -11.4253 -7.55778 -0.0767028
2 -7.62991 -7.67709 -0.0371285
3 -3.93375 -7.6574 -0.0297915
2 -0.167511 -7.66114 -0.0252401
2 3.83941 -7.72591 0.105076
2 7.62152 -7.57957 0.123181
1 11.4945 -7.58526 -0.09683
3 15.1654 -7.76622 -0.122498
2 19.1284 -7.65832 -0.165952
2 22.5938 -7.86084 0.531637
2 -22.7111 -3.85815 0.1146
3 -19.0587 -3.88587 0.00165654
3 -15.3052 -3.78402 -0.0505005
3 -11.2928 -3.5921 0.00688516
1 -7.80419 -3.75683 0.144559
2 -3.93472 -3.70015 -0.0423804
2 0.12856 -3.8069 -0.00512612
1 3.97286 -3.91197 0.135403
2 7.60459 -3.88055 0.0722518
3 11.4064 -3.84779 -0.110362
1 15.1466 -3.82898 -0.0199396
3 19.2283 -3.93846 -0.0229599
1 23.0342 -3.96265 0.0740424
2 -23.1452 0.260182 0.126022
1 -19.0054 0.0583027 0.0974987
2 -15.2234 0.16403 0.170233
1 -11.5181 0.263185 -0.0188038
1 -7.79571 -0.0330805 0.136176
2 -3.82768 -0.0724051 -0.0984711
2 -0.00638683 0.0428289 -0.0685857
3 3.8382 0.0414813 -0.0225373
1 7.61342 -0.0948655 -0.010028
1 11.2866 -0.122027 0.0764358
3 15.2328 0.0233612 -0.00772335
2 19.1346 -0.0356369 -0.0151444
3 22.9763 -0.0267448 0.12753
2 -22.6507 3.89329 0.11693
1 -19.0361 3.90061 -0.0355145
2 -15.2427 3.87306 0.0514052
3 -11.4973 3.91292 0.0252167
2 -7.66301 4.08518 -0.0858101
3 -3.94427 3.90167 0.0664219
2 0.0202957 3.88294 -0.0516895
2 3.65597 3.87082 -0.00869983
2 7.58404 3.71966 0.0138441
2 11.4063 3.60716 -0.0302263
1 15.318 3.74187 -0.115881
1 19.1636 3.71395 -0.147457
3 22.8793 3.82898 -0.129018
1 -22.6455 7.86924 0.090995
3 -19.1349 7.86608 -0.0148744
3 -15.2391 7.63105 0.0460766
2 -11.4878 7.75752 0.00410391
1 -7.69469 7.6978 -0.036542
1 -3.83366 7.60031 0.0649124
3 -0.0663884 7.67466 -0.0203801
2 3.73686 7.70011 -0.0539317
3 7.37497 7.73044 -0.125735
1 11.3449 7.47767 -0.0611732
3 15.0893 7.60567 0.030089
2 19.0126 7.56162 0.176615
2 22.7172 7.50682 -0.135143
3 -18.8211 11.6459 0.204631
1 -15.3727 11.5278 0.22679
2 -11.6083 11.6719 0.134405
3 -7.62558 11.6498 -0.0239814
2 -3.89328 11.5028 -0.179431
2 -0.0718181 11.4314 -0.0291078
3 3.60689 11.497 -0.00315345
3 7.43268 11.401 -0.0895797
1 11.2528 11.3236 -0.104904
2 15.2005 11.4113 -0.0333896
2 19.0337 11.3707 -0.00989795
2 -15.5688 15.1573 0.226476
3 -11.5526 15.5229 0.00811686
3 -7.6363 15.3358 -0.13369
3 -3.87882 15.2434 -0.0634006
2 -0.200684 15.1867 -0.1491
3 3.96116 15.276 0.0507581
2 7.5336 15.1853 -0.106494
3 11.3683 15.1299 0.0378311
3 15.0151 15.202 0.0540479
2 -11.624 19.1388 0.0199545
3 -7.62696 19.1687 0.00772959
3 -3.92354 19.0704 -0.0355435
1 -0.00516234 18.9612 -0.102349
1 3.76094 19.1047 -0.155049
3 7.61415 18.8016 -0.0497391
3 11.3227 18.7412 0.0309216
2 -7.77628 22.9081 0.0498037
3 -3.84258 22.6592 -0.176122
1 -0.20037 22.925 -0.187936
3 3.69636 23.0143 -0.124732
2 7.5017 22.5893 -0.126641
1 -3.65155 -22.6989 3.71917
1 -0.0659299 -23.1828 3.57984
1 3.7572 -22.7853 3.79668
2 -11.5566 -18.9215 3.77106
1 -7.64682 -19.123 3.75163
2 -3.8465 -19.0097 3.81078
2 -0.0252711 -19.1231 3.73046
1 3.89772 -18.9523 3.76481
3 7.69521 -19.1367 3.93704
2 11.6392 -19.1508 3.96699
1 -16.5191 -16.1451 3.84412
2 -11.5168 -15.2716 3.75895
1 -7.686 -15.3025 3.77508
3 -3.76707 -15.3197 3.6993
2 0.160208 -15.3257 3.81876
2 3.96618 -15.2709 3.83028
2 7.78869 -15.1181 3.94315
2 11.7243 -15.3207 4.04213
2 15.2997 -15.4508 3.83379
2 -18.8498 -11.7195 4.04667
1 -15.2952 -11.4913 3.86686
2 -11.2922 -11.4716 3.77349
2 -7.64554 -11.4905 3.87472
2 -3.7914 -11.48 3.80877
1 -0.0181741 -11.5475 3.87122
3 3.85403 -11.4855 3.71167
2 7.65019 -11.5218 3.82329
2 11.5069 -11.5641 3.93531
2 15.339 -11.5261 3.79772
2 20.6885 -13.1624 3.82139
3 -19.0157 -7.53332 3.87739
1 -15.2617 -7.57995 3.86597
2 -11.6494 -7.61768 3.85299
2 -7.69111 -7.74353 3.83945
3 -3.91122 -7.70262 3.83973
2 -0.0369408 -7.60742 3.79963
3 3.90641 -7.69763 3.80653
1 7.63096 -7.56488 3.84143
1 11.4749 -7.63213 3.82282
1 15.0907 -7.60617 3.74326
2 19.269 -7.8846 3.86176
1 -22.9434 -3.71768 3.81752
2 -19.1097 -3.88082 3.83742
2 -15.232 -3.86807 3.81793
2 -11.4511 -3.63299 3.89781
1 -7.72293 -3.69637 3.88191
1 -3.81965 -3.80786 3.70782
1 0.0647979 -3.8913 3.73465
3 3.93343 -3.8431 3.90828
2 7.62514 -3.92372 3.92558
2 11.388 -3.86799 3.96455
3 15.2964 -3.80687 3.63563
2 19.1215 -3.67238 3.72607
2 22.8558 -3.97259 3.75798
2 -23.0074 0.21819 4.02658
3 -19.1913 0.142038 3.90345
2 -15.2666 -0.0227918 3.71352
2 -11.6056 0.130561 3.73824
2 -7.75605 0.0435622 3.91364
2 -3.84833 0.0188641 3.81529
2 -0.0661979 -0.0413099 3.77703
2 3.79879 0.19946 3.68852
2 7.49669 0.0587132 3.81948
3 11.3924 -0.216641 3.67999
1 15.2128 -0.0829204 3.86682
2 18.9528 0.0614972 3.74958
2 22.7873 0.0360215 3.73953
3 -22.7599 3.92015 3.70543
1 -19.0432 3.88437 3.88336
2 -15.2664 3.74684 3.88517
1 -11.4393 3.91799 4.00762
1 -7.7527 3.80216 3.97444
1 -3.79464 3.8166 3.6997
3 -0.0820954 3.80252 3.9214
3 3.79088 3.98872 3.67854
2 7.54399 3.77024 3.76744
2 11.2565 3.69622 3.59428
3 15.2253 3.66896 3.85207
2 18.9078 3.70077 3.81656
3 22.842 3.89742 3.80767
2 -18.9053 7.69216 3.93568
3 -15.2662 7.68015 3.82631
1 -11.5864 7.79652 3.84573
3 -7.68058 7.69464 3.9288
1 -3.91623 7.74207 3.69669
2 -0.0462916 7.80168 3.6626
3 3.60945 7.69759 3.79384
3 7.41885 7.50332 3.77377
1 11.4445 7.51627 3.84807
3 15.1689 7.4966 3.68106
1 19.102 7.67952 3.69228
2 -19.3697 11.6049 4.28275
3 -15.2933 11.5229 4.09361
3 -11.4946 11.4958 3.80092
3 -7.67911 11.6823 3.88728
1 -3.92209 11.6178 3.66697
2 -0.112686 11.505 3.83203
3 3.75608 11.5011 3.72825
2 7.50127 11.363 3.75265
1 11.2635 11.3461 3.60335
1 15.1082 11.278 3.76745
2 19.0275 11.4941 3.71912
2 -15.549 15.5242 3.91521
2 -11.431 15.3641 3.77745
2 -7.73978 15.4161 3.74042
2 -3.83939 15.2563 3.70008
3 -0.136055 15.2341 3.70219
1 3.84495 15.3385 3.73546
2 7.59016 15.1723 3.86201
1 11.4593 15.176 3.7096
3 15.2317 15.1236 3.90005
2 -11.4754 19.2178 4.08197
2 -7.71334 19.201 3.78034
2 -3.78343 19.1076 3.71557
2 -0.0639908 18.9072 3.67819
2 3.91699 19.0738 3.70951
3 7.58505 19.1298 3.74005
2 11.6362 18.8127 3.96798
3 -3.9325 22.9838 3.84437
3 -0.00667405 22.6574 3.55554
2 3.7559 22.8991 3.55198
2 0.115032 -23.0538 7.47676
2 -11.5401 -18.8968 7.59304
2 -7.56433 -19.1095 7.56251
2 -3.61707 -19.0318 7.71631
3 0.0131661 -19.0693 7.65479
1 3.87447 -19.0789 7.68172
3 7.68276 -18.9373 7.75053
2 11.5884 -19.1584 7.63319
3 -15.0797 -15.3162 7.72947
3 -11.357 -15.4965 7.58417
2 -7.56885 -15.4893 7.42722
3 -3.69354 -15.3473 7.51637
2 -0.0169092 -15.0844 7.70692
2 3.73827 -15.3567 7.68772
3 7.65588 -15.2192 7.68202
2 11.5069 -15.3467 7.76709
3 15.3065 -15.3988 7.75073
1 -19.0018 -11.7003 7.84142
2 -15.3785 -11.6846 7.94161
3 -11.4177 -11.6156 7.61252
1 -7.56103 -11.4377 7.76244
2 -3.67316 -11.4804 7.63002
1 0.134826 -11.6088 7.51493
2 3.79345 -11.5392 7.59226
2 7.68691 -11.4883 7.82893
2 11.6558 -11.539 7.76415
3 15.1983 -11.4636 7.55537
3 18.9647 -11.195 7.70081
1 -18.9758 -7.64976 7.5339
2 -15.2927 -7.58718 7.82472
2 -11.4673 -7.6757 7.8527
2 -7.61691 -7.72586 7.52812
2 -3.96393 -7.70987 7.63535
2 0.0466136 -7.70807 7.63937
2 3.94146 -7.78682 7.63873
2 7.64315 -7.70751 7.7437
2 11.4926 -7.58216 7.59917
3 15.3586 -7.56046 7.69939
1 19.2595 -7.46261 7.36191
2 -19.0364 -3.80928 7.56064
2 -15.2426 -3.70238 7.64444
1 -11.5826 -3.65897 7.60097
2 -7.7833 -3.7292 7.61921
1 -3.74414 -3.74835 7.63376
1 0.129547 -3.87634 7.53683
1 3.69693 -3.89377 7.72671
2 7.64488 -3.99874 7.70782
2 11.4562 -3.89441 7.45453
2 15.3022 -4.0299 7.65322
3 18.9707 -3.87265 7.37079
1 -22.9299 -0.257247 7.80723
2 -18.9977 0.128803 7.70274
1 -15.1426 0.116378 7.59536
2 -11.5426 0.0760585 7.65698
2 -7.79074 -0.0774171 7.57585
3 -3.78714 0.0076274 7.61759
2 0.0109846 0.145497 7.57054
2 3.67992 -0.120734 7.61305
3 7.48983 0.0172781 7.63458
2 11.5078 -0.130321 7.51537
1 15.2959 -0.0420427 7.65114
1 18.8803 -0.0719315 7.49894
3 22.5397 0.0739903 7.4703
2 -19.0827 3.97467 7.69961
2 -15.1425 4.06179 7.66094
1 -11.441 3.92642 7.69019
3 -7.6049 3.7733 7.69278
2 -3.89138 3.93919 7.45724
1 -0.000239722 4.09307 7.56777
2 3.77658 3.81163 7.43859
3 7.49709 3.65424 7.65945
2 11.5933 3.72239 7.48325
2 15.23 3.73372 7.47577
1 18.8795 3.78493 7.40195
2 -18.9233 7.57862 7.78033
1 -15.2018 7.80009 7.68457
2 -11.4314 7.86106 7.60929
1 -7.78329 7.86767 7.55658
2 -3.92744 7.84352 7.69766
1 0.0953242 7.82617 7.65443
2 3.72482 7.53853 7.53725
2 7.45527 7.5643 7.46075
3 11.4036 7.50424 7.52185
2 15.0732 7.5122 7.61466
2 19.0183 7.63327 7.46552
2 -18.9983 11.5221 7.84322
3 -15.3781 11.6505 7.81075
2 -11.4649 11.5449 7.59823
2 -7.68067 11.5601 7.5551
1 -3.78645 11.5918 7.80607
3 -0.0637447 11.508 7.69324
1 3.7612 11.6154 7.54952
2 7.42807 11.3689 7.60967
1 11.3205 11.2397 7.50759
3 15.2125 11.2117 7.59016
1 18.7878 11.4168 7.61262
2 -15.47 15.2882 7.7969
3 -11.7602 15.3396 7.63556
2 -7.715 15.2267 7.64501
1 -3.95309 15.3067 7.7112
3 0.0485696 15.3301 7.69589
1 3.88424 15.236 7.54103
1 7.4913 15.2424 7.49988
1 11.49 15.3583 7.53889
2 15.2529 14.9803 7.72172
1 -11.7925 18.9777 7.86872
2 -7.68071 19.1542 7.58412
2 -4.14019 19.2818 7.82861
1 -0.146353 19.1885 7.52758
2 3.86283 19.0749 7.50716
2 7.6581 18.946 7.65195
2 11.4034 18.7888 7.74042
3 -0.200904 22.6601 7.48471
2 -7.51379 -19.2574 11.4155
3 -3.74802 -19.0632 11.4484
3 0.267787 -19.4897 11.473
3 4.0379 -19.084 11.5622
1 8.21344 -19.0085 11.732
3 -11.207 -15.3307 11.4511
1 -7.62494 -15.4252 11.5222
3 -3.8165 -15.1077 11.3749
2 0.0395139 -15.3992 11.4907
2 3.7626 -15.3063 11.4866
2 7.79634 -15.5734 11.6362
3 11.7203 -15.209 11.4355
1 -15.2551 -11.8668 11.6111
1 -11.2918 -11.5311 11.3999
2 -7.61276 -11.4489 11.4431
2 -3.86982 -11.4267 11.3408
2 0.187125 -11.5102 11.5593
2 3.90498 -11.4934 11.5554
2 7.73956 -11.477 11.4731
2 11.7746 -11.4447 11.5136
1 15.6053 -11.7022 11.5903
2 -18.9558 -8.41889 11.5943
2 -15.24 -7.51379 11.3941
2 -11.5008 -7.59285 11.5148
3 -7.62506 -7.52579 11.4932
1 -3.86072 -7.62356 11.3502
3 0.0907885 -7.66497 11.5661
1 3.9218 -7.75097 11.5178
2 7.59499 -7.66211 11.4252
3 11.6491 -7.68105 11.5733
1 15.516 -7.78967 11.6036
3 19.3257 -7.6483 11.262
2 -19.2218 -3.93853 11.2595
2 -15.4092 -3.76785 11.4533
2 -11.3785 -3.73114 11.5496
3 -7.70738 -3.74074 11.3452
3 -3.82054 -3.69972 11.42
1 -0.00504052 -3.72895 11.4435
3 3.86189 -3.78831 11.4816
1 7.67491 -3.87986 11.5597
3 11.4732 -3.71197 11.5747
3 15.3822 -3.78839 11.2987
3 19.2335 -3.88111 11.2759
3 -19.1501 0.0564182 11.2844
1 -15.2679 0.284886 11.4571
1 -11.5405 0.0283579 11.5373
3 -7.61964 0.131525 11.492
2 -3.86914 0.189001 11.4238
2 -0.169665 0.0329762 11.3513
1 3.79486 -0.0242734 11.4391
2 7.37453 -0.0728643 11.4996
2 11.4766 0.0417243 11.2458
2 15.1853 -0.0209149 11.2996
3 19.1135 0.0752742 11.2262
2 -19.9307 4.33381 12.1416
1 -15.3 3.95981 11.5165
2 -11.4189 3.90832 11.5325
1 -7.65746 3.81258 11.4695
2 -3.75565 3.87015 11.3304
3 0.0486642 3.88827 11.5155
2 3.797 3.79432 11.2765
2 7.54839 3.66014 11.3318
3 11.4352 3.6763 11.1521
3 15.1456 3.86982 11.3178
2 18.9904 3.90988 11.266
1 -19.0468 7.87948 11.6333
2 -15.2798 7.84544 11.4992
3 -11.4359 7.67598 11.4251
1 -7.68301 7.83397 11.3021
2 -3.83417 7.68244 11.4511
2 0.22344 7.75743 11.5033
2 3.85147 7.53756 11.3937
2 7.56257 7.60144 11.3747
1 11.3984 7.51936 11.4467
3 15.2063 7.53839 11.3231
2 18.9144 7.70352 11.3885
3 -15.2374 11.3278 11.554
2 -11.3203 11.4401 11.4524
3 -7.6779 11.4476 11.5408
3 -3.82117 11.4204 11.5455
2 -0.0363896 11.4219 11.4925
2 3.85144 11.5097 11.4282
3 7.59181 11.29 11.5112
1 11.4874 11.3135 11.4908
2 15.2398 11.3313 11.5043
1 -11.6565 15.362 11.6457
2 -7.71617 15.1581 11.5894
3 -3.87625 15.2883 11.5342
1 -0.206481 15.5674 11.6354
2 3.53121 15.343 11.465
2 7.63744 15.179 11.5558
1 11.6528 15.3701 11.8453
3 -7.95305 18.9816 11.5606
2 -4.02317 19.2646 11.8086
1 -0.207797 19.3133 11.6361
2 3.67152 19.2309 11.5159
1 7.93889 18.9917 11.5271
1 -7.51203 -15.3234 15.0636
2 -3.62563 -15.22 15.2013
2 -0.0320659 -15.3452 15.1499
1 3.93589 -15.5664 15.417
1 7.96346 -15.576 15.388
2 -11.5922 -11.8964 15.4013
3 -7.58877 -11.5631 15.1772
3 -3.8189 -11.4002 15.15
2 0.194428 -11.6589 15.312
1 3.81878 -11.5873 15.3079
2 7.74842 -11.5394 15.2871
3 11.4375 -11.6351 15.2295
3 -15.355 -7.88699 15.2195
3 -11.2076 -7.73171 15.3135
2 -7.45019 -7.70671 15.3087
1 -3.80217 -7.61326 15.1881
2 -0.0339758 -7.49269 15.2007
2 3.73199 -7.69944 15.3748
2 7.81973 -7.79551 15.2619
3 11.5446 -7.76767 15.2946
3 15.3246 -7.77701 15.3331
2 -15.5542 -3.89144 15.2428
2 -11.5336 -3.78476 15.2328
3 -7.68504 -3.72512 15.3395
3 -3.93409 -3.88523 15.3198
3 -0.0194157 -3.88955 15.3282
2 3.68529 -3.83626 15.2904
1 7.67938 -3.82639 15.3389
2 11.5463 -3.66724 15.1017
3 15.3849 -3.84412 15.2
2 -15.4317 0.0585028 15.232
2 -11.5519 0.0532706 15.1298
2 -7.68873 -0.0983925 15.0618
2 -3.89638 0.150513 15.2819
2 -0.121851 -0.00547405 15.2204
1 3.6673 -0.0714382 15.3185
1 7.52261 -0.0621049 15.1991
1 11.3438 -0.0595476 15.3479
3 15.1931 0.0055108 15.129
3 -15.5243 4.00537 15.1796
2 -11.6612 3.64274 15.349
1 -7.58403 3.77884 15.1496
2 -3.69513 3.88174 15.1356
2 -0.148934 3.96454 15.2508
3 3.71732 3.77586 15.3003
2 7.5259 3.81345 15.221
1 11.2437 3.79018 15.1031
3 15.3728 3.82599 15.1595
1 -15.2101 7.71227 15.215
3 -11.444 7.62682 15.1904
2 -7.59836 7.54867 15.2944
1 -3.97344 7.61966 15.2377
2 -0.00789943 7.70852 15.294
2 3.74623 7.49908 15.3973
1 7.43339 7.44807 15.2906
3 11.4155 7.61282 15.1593
1 15.249 7.70648 15.2979
1 -11.8899 11.5359 15.6051
2 -7.694 11.5743 15.5075
3 -3.92888 11.3729 15.236
2 -0.225 11.4816 15.3927
2 3.80879 11.4426 15.3094
1 7.4502 11.4149 15.2103
3 11.3476 11.4459 15.207
2 -8.01687 14.9585 15.3817
2 -4.01216 15.0734 15.4889
2 0.0153282 15.3571 15.327
2 3.54195 15.306 15.2757
3 7.54385 15.2489 15.0621
2 -7.33425 -11.6014 18.8292
3 -3.79558 -11.5541 19.0344
2 -0.125338 -11.5598 19.0501
2 4.12227 -11.9627 19.233
2 7.91917 -11.6368 18.9395
2 -11.4125 -7.78599 18.893
2 -7.41701 -7.72786 18.9119
1 -3.75624 -7.65956 19.0748
2 -0.0376957 -7.74052 19.1079
2 3.78108 -7.59659 19.2058
2 7.71098 -7.85814 19.1213
3 11.5803 -7.6437 19.0798
2 -11.9028 -4.09553 19.2001
2 -7.5591 -3.58797 19.1835
1 -3.76744 -3.87003 19.0221
3 -0.0325158 -3.83423 19.0683
2 3.74308 -3.89172 19.1827
2 7.73283 -4.05092 19.5447
2 13.1586 -3.52989 20.9993
1 -12.1637 0.20989 19.5563
2 -7.7942 0.0418562 19.1779
3 -3.85255 0.0535878 19.0519
2 -0.127082 -0.0161629 19.0724
2 3.77247 -0.102848 19.0805
2 7.42555 0.0351703 19.0085
2 11.2098 0.206356 19.0934
2 -11.533 3.89542 19.0564
2 -7.68664 3.63208 19.0351
3 -3.78964 3.82135 19.031
2 0.104544 3.78708 19.2011
3 3.79649 3.8747 19.0584
2 7.53543 3.8393 19.0234
2 11.5494 4.02223 19.069
3 -11.3296 7.4421 18.9471
3 -7.69684 7.62325 19.0982
3 -3.99357 7.69183 18.9663
3 -0.0369948 7.51694 19.1478
2 3.72958 7.52276 18.8948
3 7.56424 7.61226 18.9254
1 11.3106 7.54476 18.8487
2 -7.83773 11.181 19.0071
1 -4.16505 11.613 19.2787
3 -0.128865 11.4169 18.9509
2 3.72757 11.5214 18.9438
1 7.56026 11.3141 19.1322
2 -0.112994 -7.92668 22.6282
1 -3.76431 -3.74518 22.7891
2 0.106721 -4.07618 22.9527
2 3.70312 -3.86342 22.7927
2 -7.69901 0.071246 22.8417
1 -3.7544 0.233496 22.8291
2 0.20492 -0.0627584 23.1186
2 3.65519 0.0443137 22.6958
2 7.36002 0.113171 22.6921
2 -3.90322 3.86389 22.7446
3 -0.0301448 3.75138 22.6798
3 3.81298 3.82584 22.8053
2 -0.0147987 7.60027 22.9244
2 -5.81699 -5.87931 -22.4556
3 -1.74701 -5.65529 -22.772
2 1.90693 -5.52872 -22.4688
2 5.77957 -5.75642 -22.4557
3 -5.64856 -1.99432 -22.4833
3 -1.95967 -1.96048 -22.7395
3 1.96888 -1.81423 -22.7643
1 5.59958 -2.0254 -22.6345
1 -5.76941 2.33634 -22.4941
3 -1.75411 1.8366 -22.739
2 1.88925 1.75799 -22.8412
1 5.78319 1.88771 -22.8024
1 -5.69748 5.08605 -22.1386
1 -1.71996 5.73993 -22.6637
2 2.01095 5.32506 -22.987
1 7.38163 4.12322 -22.4946
2 -5.91738 -13.087 -18.768
1 -1.76115 -13.2186 -18.8951
1 2.18972 -13.5141 -19.1025
2 5.88098 -13.4629 -18.8318
2 -9.85503 -9.74602 -19.0716
2 -5.88279 -10.541 -19.9655
3 -1.70262 -9.69 -19.0942
3 2.06596 -9.55382 -18.9025
1 5.67833 -9.58446 -18.9275
2 9.83554 -10.0513 -19.0373
1 -13.3729 -6.01279 -18.3062
2 -9.80605 -5.60195 -18.9265
3 -5.56795 -5.76652 -19.0779
1 -1.69848 -5.66248 -18.8756
1 1.99466 -5.8254 -18.8782
1 5.72982 -5.80239 -19.0679
3 9.39716 -5.52932 -18.9289