928
 Atoms. Timestep: 100
1 -0.727247 -0.334672 -1.28776
1 0.719425 0.435923 1.09829
1 -0.742742 -1.95497 1.08582
1 0.675916 1.99644 -1.18495
1 -2.10439 0.454454 1.11218
1 2.08694 -0.418294 -1.29265
1 -2.1902 2.01448 -1.23933
1 2.06038 -2.1086 1.20579
1 -0.702834 2.89393 1.12148
1 0.693506 -2.91702 -1.1883
1 -0.770203 -0.397019 3.48545
1 0.700201 0.421186 -3.6264
1 -3.50853 -0.355925 -1.20659
1 3.47205 0.320826 1.19508
1 -2.05666 -2.76947 -1.16784
1 2.08672 2.8829 1.12768
1 -0.721612 -2.03876 -3.49992
1 0.624236 1.99967 3.37711
1 -2.09582 0.42104 -3.59018
1 2.03997 -0.4515 3.48351
1 -3.49657 -2.03508 1.1667
1 3.55042 1.91527 -1.21655
1 -2.12798 2.06344 3.47164
1 2.15191 -2.00241 -3.50503
1 -0.662657 2.89568 -3.53995
1 0.704433 -2.86412 3.48981
1 -0.764199 4.41323 -1.29543
1 0.713852 -4.433 1.1727
1 -3.56463 2.8665 1.08926
1 3.44358 -2.86007 -1.1539
1 -3.54473 -0.393105 3.46701
1 3.48591 0.420221 -3.53239
1 -2.08076 -2.82813 3.45665
1 2.13238 2.80234 -3.50231
1 -1.98555 -4.31485 1.22554
1 2.06831 4.29438 -1.19977
1 -4.83359 0.470215 1.20584
1 4.82757 -0.474676 -1.25169
1 -3.53696 -1.98383 -3.39508
1 3.43231 1.9434 3.40105
1 -4.87855 2.09201 -1.23518
1 4.84834 -2.03233 1.11883
1 -0.593314 -5.19803 -1.15871
1 0.596036 5.15977 1.06749
1 -0.76672 4.41949 3.39956
1 0.767128 -4.39694 -3.4093
1 -3.44098 2.81497 -3.46965
1 3.43477 -2.84515 3.38088
1 -3.40377 4.43652 -1.19486
1 3.55347 -4.4633 1.13594
1 -2.13832 5.19699 1.14031
1 2.14324 -5.20819 -1.15747
1 -4.83486 -2.76469 -1.03005
1 4.83429 2.73024 1.08236
1 -0.729018 -0.410363 -5.86856
1 0.651948 0.475628 5.72399
1 -1.98359 -4.36717 -3.3174
1 1.98496 4.36495 3.40181
1 -4.83356 0.431899 -3.40439
1 4.78522 -0.480162 3.33038
1 -0.709047 -1.95404 5.71553
1 0.725081 2.05234 -5.81013
1 -2.12869 0.427598 5.68741
1 2.10204 -0.35923 -5.78831
1 -4.88524 2.04251 3.38322
1 4.86528 -2.0417 -3.39791
1 -0.763471 -5.22211 3.3964
1 0.668327 5.2063 -3.4301
1 -6.12073 -0.320606 -1.11129
1 6.18475 0.307412 1.15861
1 -3.321 -5.15714 -1.06763
1 3.38884 5.08968 1.18798
1 -2.08085 2.02501 -5.7754
1 1.99072 -2.01573 5.76539
1 -0.700988 2.89358 5.77238
1 0.730789 -2.77478 -5.74408
1 -3.54694 4.36507 3.45863
1 3.53911 -4.4206 -3.46699
1 -2.04238 5.26635 -3.46895
1 1.97627 -5.26041 3.42826
1 -4.82186 -2.7712 3.44754
1 4.83183 2.70175 -3.42905
1 -4.78553 -4.38928 1.19927
1 4.92211 4.27562 -1.23563
1 -6.22806 -1.97223 1.20512
1 6.15525 1.91357 -1.12287
1 -3.38685 -0.417368 -5.77966
1 3.32709 0.341395 5.71479
1 -2.0073 -2.75679 -5.70184
1 1.91597 2.82785 5.68252
1 -0.564197 -6.85855 1.17234
1 0.607353 6.76711 -1.16258
1 -6.21557 2.89394 1.13335
1 6.2776 -2.88194 -1.16389
1 -3.41615 -1.91473 5.66618
1 3.42081 2.00779 -5.75943
1 -6.24811 -0.432089 3.42191
1 6.17392 0.331305 -3.48292
1 -3.42649 -5.18928 3.4347
1 3.39205 5.15819 -3.42291
1 -2.05216 6.84108 -1.09082
1 2.10422 -6.82342 1.1303
1 -4.80778 5.20173 1.14192
1 4.89462 -5.24714 -1.17599
1 -0.692088 4.41774 -5.72244
1 0.64096 -4.352 5.66962
1 -3.55805 2.82679 5.69707
1 3.47579 -2.8597 -5.75369
1 -4.89475 -4.29537 -3.28724
1 4.73002 4.31479 3.43346
1 -6.22758 -1.93271 -3.37714
1 6.19022 1.9745 3.36983
1 -2.1015 -4.28386 5.69341
1 2.04548 4.41775 -5.70951
1 -4.91818 0.418093 5.64938
1 4.81077 -0.389171 -5.75755
1 -0.671239 -6.75513 -3.439
1 0.642285 6.71746 3.4433
1 -6.1562 2.75328 -3.41527
1 6.12035 -2.82253 3.36386
1 -3.34155 -6.73033 1.11823
1 3.4156 6.66911 -1.12217
1 -6.24403 4.43516 -1.16539
1 6.22959 -4.34091 1.09822
1 -0.700271 7.58613 1.14487
1 0.721987 -7.52499 -1.14188
1 -7.44487 0.517765 1.1682
1 7.46013 -0.435772 -1.22692
1 -4.78471 1.98641 -5.76729
1 4.82599 -1.99536 5.71396
1 -0.718782 -5.06443 -5.66554
1 0.666079 5.21181 5.74887
1 -2.1401 6.7254 3.3669
1 2.04651 -6.8184 -3.41763
1 -4.77725 5.15022 -3.36532
1 4.83522 -5.22867 3.40049
1 -7.49887 2.09171 -1.11476
1 7.50424 -1.96448 1.11876
1 -2.00292 -7.53473 -1.08454
1 2.00945 7.48054 1.13838
1 -3.37647 4.38172 -5.68109
1 3.46999 -4.35313 5.5794
1 -2.08579 5.13712 5.68565
1 2.03123 -5.14387 -5.59883
1 -4.78615 -2.80989 -5.64741
1 4.76503 2.68128 5.56226
1 -0.740317 -0.281458 8.05751
1 0.67077 0.450003 -8.07631
1 -6.26905 -5.11859 -1.1429
1 6.16552 5.15567 1.17423
1 -7.54204 -2.82717 -1.17376
1 7.49928 2.79946 1.15194
1 -0.619236 -1.91957 -8.13084
1 0.628845 1.95935 8.12654
1 -2.01044 0.368057 -8.07261
1 1.93713 -0.398649 8.04536
1 -3.32416 -6.68958 -3.31969
1 3.33312 6.74449 3.40547
1 -6.32173 4.40005 3.38612
1 6.32202 -4.42201 -3.41102
1 -0.694393 7.68204 -3.36348
1 0.720993 -7.60086 3.44391
1 -7.54748 0.390361 -3.37705
1 7.46899 -0.46669 3.44889
1 -4.81303 6.79509 -1.15278
1 4.86829 -6.88823 1.1865
1 -3.55714 7.64687 1.1319
1 3.60646 -7.58747 -1.16344
1 -6.09747 -0.398751 -5.63657
1 6.04941 0.375994 5.54617
1 -3.39044 -5.03151 -5.52931
1 3.32763 5.03688 5.5697
1 -2.03764 2.0558 7.98925
1 2.04964 -1.95727 -8.01313
1 -0.715662 2.77575 -7.99628
1 0.669165 -2.7287 7.99086
1 -7.66389 2.0419 3.44999
1 7.64982 -2.01197 -3.42666
1 -2.09023 -7.66883 3.33903
1 1.97993 7.58472 -3.40372
1 -4.84382 -4.28136 5.64322
1 4.87795 4.30808 -5.65828
1 -6.23531 -2.04808 5.66513
1 6.20747 2.01155 -5.6491
1 -3.34291 -0.278547 7.9829
1 3.40707 0.386919 -8.03758
1 -1.97382 -2.63897 7.98078
1 2.03272 2.74691 -8.00028
1 -6.21032 -5.12388 3.35615
1 6.20201 5.17813 -3.44967
1 -7.57621 -2.79229 3.46399
1 7.55184 2.77024 -3.46215
1 -7.6306 -4.37223 1.01202
1 7.60424 4.38812 -1.15308
1 -0.678254 -6.76742 5.63907
1 0.701314 6.78916 -5.67751
1 -6.19773 2.78156 5.58192
1 6.17693 -2.74469 -5.59354
1 -3.33817 -1.94761 -8.04374
1 3.3596 1.96304 8.00959
1 -4.92126 6.71422 3.36452
1 4.89951 -6.76805 -3.44764
1 -3.4211 7.57538 -3.42205
1 3.40242 -7.57621 3.40008
1 -4.77252 -7.35838 -1.11681
1 4.79693 7.38486 1.14377
1 -8.73753 -0.4088 -1.11306
1 8.7754 0.430138 1.17429
1 -2.06142 6.79234 -5.72055
1 2.05634 -6.64563 5.73937
1 -4.81709 5.20653 5.57816
1 4.77261 -5.16709 -5.75168
1 -0.655394 4.39839 8.04796
1 0.701208 -4.29471 -8.06109
1 -3.37184 2.71949 -8.06729
1 3.37954 -2.7348 7.98674
1 -0.705042 9.24364 -1.18241
1 0.7136 -9.24618 1.1427
1 -6.2054 -6.67249 1.13555
1 6.23336 6.62182 -1.1753
1 -8.89052 -1.9846 1.0972
1 8.80973 1.96764 -1.09892
1 -7.66863 5.22308 1.06478
1 7.70656 -5.17348 -1.11587
1 -1.99357 -4.17645 -8.09142
1 2.04337 4.22493 8.00959
1 -4.71252 0.369085 -8.04063
1 4.61632 -0.391706 8.02337
1 -7.69213 -4.43036 -3.4581
1 7.68598 4.37669 3.35548
1 -2.04917 -9.17174 1.12409
1 1.93837 9.17283 -1.10525
1 -8.89233 2.85608 1.18311
1 8.96024 -2.87377 -1.07928
1 -3.3827 -6.68114 5.63156
1 3.4072 6.78278 -5.61269
1 -6.15746 4.34833 -5.61115
1 6.28595 -4.41573 5.59273
1 -0.714442 7.50368 5.58743
1 0.644797 -7.49811 -5.62819
1 -7.6249 0.353498 5.65629
1 7.59646 -0.329884 -5.70436
1 -4.74035 1.98195 7.88616
1 4.77136 -2.0275 -7.9522
1 -0.689518 -5.11042 7.80051
1 0.62116 5.17613 -7.93724
1 -4.80275 -7.53363 3.38196
1 4.78693 7.4656 -3.39934
1 -8.90752 -0.403288 3.39178
1 8.88696 0.325647 -3.3891
1 -7.49696 1.97311 -5.66456
1 7.49631 -2.00563 5.74179
1 -2.08413 -7.48656 -5.59708
1 1.99538 7.57027 5.62126
1 -3.34507 4.46655 8.07574
1 3.47297 -4.41679 -8.1065
1 -2.09666 5.15437 -7.9619
1 1.98022 -5.10085 7.89276
1 -4.72077 -2.71588 7.96925
1 4.82666 2.77664 -7.94589
1 -0.760337 9.07812 3.35484
1 0.684118 -9.11316 -3.41846
1 -6.1421 -6.64343 -3.37055
1 6.13852 6.60024 3.31439
1 -8.94551 -2.07601 -3.408
1 8.87951 1.95199 3.40073
1 -7.57767 5.14994 -3.44621
1 7.53705 -5.19803 3.39591
1 -3.40469 9.23163 -1.07942
1 3.53049 -9.18761 1.05341
1 -6.25987 7.43482 1.10475
1 6.2612 -7.54228 -1.13847
1 -6.19109 -5.24045 -5.63135
1 6.12053 5.14831 5.6379
1 -7.53581 -2.8102 -5.75742
1 7.5526 2.73263 5.59733
1 -1.99077 -9.10332 -3.43572
1 1.99999 9.05553 3.36885
1 -9.00353 2.78478 -3.40881
1 8.83279 -2.76696 3.47076
1 -9.02107 4.28644 -1.13307
1 8.98873 -4.29365 1.18406
1 -0.662009 -10.0099 -1.16998
1 0.694145 9.96569 1.14481
1 -4.83124 6.7244 -5.65465
1 4.81068 -6.74562 5.62573
1 -3.49134 7.47138 5.66433
1 3.45907 -7.52178 -5.63236
1 -6.16664 -0.435612 7.90933
1 6.24882 0.390546 -7.8969
1 -3.47176 -5.11305 7.87119
1 3.43266 5.1615 -7.82958
1 -0.679687 -0.44193 -10.5588
1 0.701917 0.456388 10.3892
1 -7.63848 6.71691 -1.12846
1 7.57326 -6.71028 1.20257
1 -2.03973 10.0225 1.14402
1 2.14877 -9.96554 -1.10697
1 -4.6502 -4.25613 -7.82654
1 4.70119 4.21866 7.76729
1 -6.02853 -1.91527 -7.84427
1 6.16135 1.92759 7.81686
1 -3.51233 9.05677 3.4205
1 3.50327 -9.10105 -3.40886
1 -6.17287 7.54823 -3.37206
1 6.24623 -7.58009 3.40617
1 -0.661469 -1.8945 10.3383
1 0.688873 1.94308 -10.4342
1 -1.95788 0.580135 10.4131
1 2.01658 -0.346207 -10.4051
1 -4.71056 -9.00156 0.971229
1 4.68548 8.96854 -1.12325
1 -10.1436 0.438317 1.05346
1 10.1847 -0.450608 -0.956968
1 -9.13597 -5.29841 -1.2204
1 9.09736 5.22149 1.22217
1 -7.62197 -4.33586 5.62336
1 7.54753 4.42708 -5.61596
1 -0.699519 -6.71765 -8.05124
1 0.736319 6.7764 8.08147
1 -6.21724 2.81669 -8.05057
1 6.19362 -2.7657 7.99296
1 -9.01964 4.41619 3.41602
1 9.08838 -4.4579 -3.48726
1 -0.651631 -10.0395 3.43821
1 0.651832 10.0666 -3.38933
1 -2.01309 1.94728 -10.4045
1 2.10188 -1.99015 10.4009
1 -0.588298 2.82219 10.4852
1 0.638285 -2.79241 -10.4521
1 -3.43327 -9.80913 -1.22407
1 3.36662 9.81691 1.21414
1 -10.3894 1.98768 -1.1771
1 10.4507 -2.03433 1.36247
1 -4.73179 -7.52899 -5.63714
1 4.68969 7.47034 5.66663
1 -8.88788 -0.436031 -5.60783
1 8.84581 0.33496 5.64778
1 -1.98183 6.73571 7.90454
1 1.97892 -6.68098 -7.87876
1 -4.76259 5.02159 -7.85395
1 4.72328 -4.99733 7.80828
1 -7.63292 6.80582 3.31099
1 7.63449 -6.79598 -3.38914
1 -2.13731 10.0059 -3.36915
1 2.10516 -9.9136 3.37282
1 -3.43465 -0.30911 -10.3488
1 3.49965 0.427557 10.41
1 -2.11311 -2.77961 -10.431
1 2.05608 2.81401 10.3471
1 -7.56924 -7.47631 -1.27824
1 7.63728 7.50267 1.14645
1 -10.3748 -2.89563 -1.16107
1 10.298 2.85259 1.15339
1 -0.641039 9.31582 -5.65785
1 0.64655 -9.235 5.59484
1 -6.22391 -6.73565 5.66087
1 6.26836 6.8095 -5.66007
1 -9.00467 -2.06926 5.66795
1 9.08846 1.96974 -5.64875
1 -7.67053 5.32524 5.59523
1 7.62245 -5.21819 -5.62066
1 -4.81038 -9.10429 -3.49643
1 4.90368 9.04254 3.52015
1 -10.2658 0.349216 -3.38755
1 10.1932 -0.408314 3.5293
1 -9.0238 -5.1982 3.39717
1 9.08099 5.14451 -3.48028
1 -3.32195 -1.82404 10.3171
1 3.39071 1.93825 -10.3166
1 -1.9673 -9.13055 5.66123
1 1.91637 9.2989 -5.64634
1 -8.91754 2.98683 5.67154
1 9.10732 -3.08074 -5.63467
1 -3.30747 -6.51169 -7.7452
1 3.34017 6.59539 7.82946
1 -6.16747 4.44685 7.80934
1 6.18134 -4.38367 -7.86032
1 -0.808911 7.52051 -7.91397
1 0.680197 -7.66541 7.80638
1 -7.35765 0.395616 -7.75294
1 7.32002 -0.406455 7.76622
1 -3.55289 -9.92751 3.36534
1 3.4126 9.86406 -3.27911
1 -10.3343 1.94373 3.34021
1 10.3794 -1.99647 -3.30034
1 -0.759177 4.29115 -10.2699
1 0.753921 -4.34285 10.2386
1 -3.28044 2.81646 10.3515
1 3.2976 -2.74402 -10.368
1 -6.23876 9.12068 -1.15922
1 6.23796 -9.25002 1.17972
1 -4.94282 9.88404 1.14044
1 4.95776 -10.0202 -1.15576
1 -7.47513 1.89782 7.90778
1 7.47094 -1.99234 -7.78161
1 -2.09827 -7.54694 7.80789
1 2.04557 7.51602 -7.8087
1 -7.64334 -7.5119 3.35677
1 7.64649 7.49486 -3.40509
1 -10.3412 -2.88603 3.4711
1 10.354 2.75641 -3.44342
1 -1.99953 -4.19488 10.1747
1 1.98398 4.45859 -10.3214
1 -4.89217 0.575037 10.0923
1 4.88682 -0.479058 -10.0916
1 -9.00987 -6.74356 1.04296
1 8.91215 6.69619 -1.20275
1 -10.1995 -4.46015 1.09889
1 10.2218 4.37931 -1.04957
1 -3.3383 9.11939 -5.61961
1 3.29019 -9.05455 5.66328
1 -6.24275 7.56483 5.59327
1 6.32674 -7.44514 -5.67589
1 -6.19298 -5.05978 7.88752
1 6.17865 5.19523 -7.93509
1 -7.52103 -2.68646 7.94274
1 7.64295 2.89315 -7.81828
1 -4.9433 1.97383 -10.2603
1 4.88867 -1.91396 10.3248
1 -0.755075 -5.12475 -10.3163
1 0.766279 5.17094 10.3693
1 -8.97665 4.19915 -5.60282
1 8.90249 -4.35074 5.78796
1 -0.779929 -9.81439 -5.77035
1 0.63535 9.95065 5.62708
1 -4.70297 6.75311 7.98182
1 4.83701 -6.68405 -8.17992
1 -3.50956 7.50053 -8.03317
1 3.37545 -7.33196 8.00127
1 -6.19053 9.28587 3.37623
1 6.265 -9.2281 -3.28821
1 -4.88295 9.9519 -3.23297
1 4.84512 -9.91867 3.32848
1 -3.61818 4.34455 -10.1582
1 3.48546 -4.29342 10.1841
1 -1.92223 5.21074 10.2546
1 1.94706 -5.18645 -10.2887
1 -4.96947 -2.7826 -10.1197
1 4.94923 2.78896 10.0486
1 -0.785313 -11.6586 0.943328
1 0.779207 11.7941 -0.924579
1 -10.4438 5.30222 1.02237
1 10.4666 -5.1924 -0.979606
1 -7.64625 6.75147 -5.63462
1 7.52804 -6.79062 5.63025
1 -2.09675 9.83438 5.59915
1 2.0519 -9.82964 -5.75025
1 -8.81708 -6.82855 -3.3972
1 8.84446 6.76767 3.36287
1 -10.3046 -4.21199 -3.39666
1 10.3157 4.19142 3.50562
1 -2.12091 11.5207 -1.00391
1 2.14837 -11.5273 1.01239
1 -5.95328 -9.77143 -1.2313
1 6.1187 9.65331 0.989928
1 -8.91208 7.71721 1.06772
1 8.99701 -7.70367 -0.980024
1 -11.3386 -0.444338 -1.10421
1 11.3285 0.368982 1.25591
1 -4.69144 -9.01733 5.57848
1 4.60001 9.06949 -5.549
1 -10.2507 0.480412 5.57365
1 10.2333 -0.517755 -5.59984
1 -8.92051 -5.27357 -5.80757
1 9.04966 5.14763 5.68903
1 -7.4828 -4.36097 -7.94748
1 7.48312 4.37432 7.77722
1 -6.30156 -0.481374 -10.0781
1 6.24933 0.474215 10.0136
1 -3.5604 -5.17371 -10.0967
1 3.64372 5.14781 10.001
1 -7.55098 -8.89435 0.887346
1 7.45409 8.89644 -1.11593
1 -11.4736 -2.1146 1.08876
1 11.4158 1.94238 -1.01867
1 -3.47187 -9.92323 -5.60442
1 3.40199 9.86255 5.47679
1 -10.3724 1.81471 -5.58191
1 10.2268 -1.97841 5.738
1 -4.78347 -7.45873 7.88801
1 4.65893 7.39644 -7.9911
1 -8.8732 -0.481277 7.92567
1 8.81258 0.362467 -8.03083
1 -0.751155 -11.3962 -3.45936
1 0.784616 11.4661 3.42251
1 -10.3553 5.15336 -3.28903
1 10.2165 -5.06956 3.41336
1 -4.65453 -4.22498 9.97664
1 4.67072 4.28566 -10.0512
1 -6.07868 -1.94751 10.1349
1 6.15582 2.08903 -10.0113
1 -3.6417 -11.5041 0.977516
1 3.56414 11.3798 -0.927479
1 -11.8492 2.61414 0.991494
1 11.5779 -2.65013 -0.909076
1 -7.33254 -7.67967 -5.45736
1 7.47076 7.52614 5.43426
1 -10.1168 -2.8989 -5.6534
1 10.2579 2.5205 5.47509
1 -0.52403 9.01566 7.82544
1 0.638908 -8.97797 -7.95069
1 -6.05112 -6.80402 -7.76772
1 5.98087 6.71956 7.80242
1 -8.91648 -1.90682 -7.88938
1 8.84991 1.88316 7.81576
1 -7.54425 4.95244 -7.73117
1 7.50886 -5.069 7.96877
1 -2.00035 11.6151 3.26324
1 2.15369 -11.6279 -3.43729
1 -6.3013 -9.85069 2.95626
1 6.0811 9.74091 -3.33097
1 -8.95362 7.68212 -3.2929
1 9.05565 -7.56498 3.37694
1 -11.6782 -0.423749 3.10397
1 11.5657 0.359778 -3.13885
1 -0.789375 -6.53061 9.94255
1 0.6114 6.58094 -10.034
1 -5.82912 2.99911 9.92017
1 5.94273 -2.81225 -10.011
1 -2.1585 -8.91694 -7.89041
1 2.18263 9.07686 7.72214
1 -8.96009 2.50562 -7.81554
1 8.77843 -2.61186 7.95838
1 -7.66396 -9.58616 -3.18385
1 7.6818 9.44713 3.15431
1 -12.0797 -2.0427 -3.07102
1 12.1488 1.90838 3.23733
1 -2.63813 6.6998 -10.5958
1 2.65752 -6.76294 10.7476
1 -4.548 5.60482 10.6718
1 4.58966 -5.58252 -10.9338
1 -10.2885 6.83705 -1.06951
1 10.3253 -6.7415 1.23701
1 -0.783525 12.4642 1.1213
1 0.908567 -12.2936 -1.23039
1 -6.19078 9.10441 -5.5269
1 6.14861 -9.16236 5.72213
1 -4.87176 10.0007 5.69486
1 4.81298 -9.82167 -5.67576
1 -0.684022 -0.349309 12.6114
1 0.698432 0.565014 -12.7209
1 -3.40894 -11.9123 -3.3991
1 3.59755 12.0043 3.25805
1 -11.9998 2.85573 -3.30698
1 12.0592 -2.96914 3.47807
1 -4.87747 11.8707 -0.863133
1 4.92248 -11.8412 1.05308
1 -2.29412 -12.3567 -1.14734
1 2.30142 12.4878 1.11285
1 -11.916 4.30816 -1.1468
1 11.9428 -4.27716 1.2203
1 -7.80615 10.1956 1.07664
1 7.84282 -10.2945 -0.996943
1 -8.98432 -6.78517 5.66552
1 9.12598 6.88315 -5.78656
1 -10.4494 -4.38676 5.70223
1 10.5321 4.43432 -5.66793
1 -3.33844 9.14365 7.85686
1 3.34079 -9.07021 -7.95078
1 -6.29569 7.36727 -7.94354
1 6.10599 -7.51896 7.99381
1 -0.761417 -1.97935 -13.01
1 0.713707 2.04202 12.8487
1 -2.06973 0.298173 -12.909
1 1.96063 -0.448285 12.9552
1 -3.62507 -6.76224 10.3912
1 3.62027 6.82372 -10.3544
1 -6.42556 4.30719 -10.3801
1 6.30232 -4.20398 10.412
1 -0.493624 7.67538 10.4978
1 0.605975 -7.69243 -10.5969
1 -7.89308 0.0273282 10.5195
1 7.93323 0.115855 -10.7416
1 -8.81546 4.29101 8.1748
1 8.99398 -4.41076 -8.41205
1 -0.67307 -9.98236 8.4698
1 0.493169 9.81255 -8.23231
1 -2.19385 1.98378 12.9813
1 2.04981 -1.78109 -12.93
1 -0.723603 2.84735 -12.9296
1 0.605089 -2.83879 13.0456
1 -10.5324 6.82106 3.24224
1 10.4265 -6.81067 -3.12076
1 -0.73949 12.5736 -3.20461
1 0.726388 -12.4422 3.21625
1 -7.68398 1.84048 -10.2225
1 7.68069 -1.78432 10.4409
1 -2.08818 -7.55655 -10.3886
1 2.18773 7.70765 10.2897
1 -9.10952 9.4222 -1.10459
1 9.09218 -9.30196 1.18888
1 -3.54336 12.73 1.2267
1 3.64402 -12.634 -1.16642
1 -11.1952 -8.08982 -0.984304
1 10.9556 7.72753 1.13165
1 -12.4071 -5.75328 -0.953222
1 12.2485 5.46942 1.10751
1 -0.676709 -12.054 5.33053
1 0.742713 11.971 -5.22981
1 -10.8591 5.45279 5.28972
1 10.8537 -5.35391 -5.22314
1 -7.59216 6.91433 8.02438
1 7.62314 -6.71099 -8.04682
1 -2.1726 10.0111 -7.92969
1 2.14165 -9.9601 7.93487
1 -3.52969 -0.46536 13.0566
1 3.48539 0.650618 -13.1373
1 -2.12356 -2.75158 12.8464
1 2.08765 2.89138 -13.0943
1 -4.83691 11.6537 3.41155
1 4.85391 -11.5362 -3.4127
1 -2.26635 -12.3286 3.20502
1 2.24722 12.4244 -3.1169
1 -11.8102 4.31832 3.1631
1 12.0625 -4.24251 -3.10542
1 -7.62464 10.1356 -3.35946
1 7.60731 -9.94117 3.40954
1 -6.18489 -5.19326 -10.3212
1 6.21539 5.11446 10.2401
1 -7.70112 -2.80037 -10.2719
1 7.57599 2.79107 10.4067
1 -2.08128 11.6682 -5.51855
1 2.05111 -11.5837 5.48516
1 -6.36226 -10.1875 -5.75592
1 6.42143 10.0864 5.63251
1 -9.06719 7.62751 5.52747
1 9.19442 -7.43273 -5.50673
1 -11.6773 -0.592705 -5.55012
1 11.8431 0.417607 5.67361
1 -4.87789 -9.35421 -8.07226
1 4.93909 9.1938 7.85296
1 -10.4836 0.271927 -7.88763
1 10.3763 -0.331867 7.96289
1 -8.95447 -5.20335 7.90478
1 9.01135 5.27858 -7.8362
1 -3.31914 -1.92886 -12.8411
1 3.26221 1.84423 12.6344
1 -5.14928 6.67178 -10.1068
1 5.14098 -6.60525 10.292
1 -3.14445 7.73765 10.1725
1 3.31684 -7.71518 -10.3184
1 -6.34102 -12.197 1.12134
1 6.41001 11.6076 -1.05668
1 -13.7973 0.453287 1.1556
1 14.1872 -0.691292 -0.970785
1 -7.66414 -9.08292 5.60743
1 7.80866 9.12806 -5.64624
1 -11.7806 -2.06188 5.75539
1 11.85 2.07514 -5.77679
1 -3.43554 -9.91629 7.91919
1 3.41921 9.88042 -7.88095
1 -10.2268 1.96668 7.77305
1 10.26 -2.00319 -7.93801
1 -0.691862 4.20048 12.88
1 0.576568 -4.16141 -12.8615
1 -3.29841 2.71574 -12.666
1 3.23671 -2.70142 12.7594
1 -9.0208 9.19141 3.37933
1 8.96157 -9.15082 -3.23622
1 -3.50061 12.3671 -3.23078
1 3.46284 -12.3061 3.27428
1 -10.4625 -7.65241 3.52453
1 10.5027 7.47541 -3.37622
1 -11.6693 -5.23961 3.49445
1 11.7526 5.08309 -3.35275
1 -4.99501 -12.3136 -1.1748
1 5.10042 12.2092 1.16451
1 -13.0465 1.7863 -1.13354
1 13.0201 -1.81105 1.15591
1 -3.40061 -11.524 5.52949
1 3.47625 11.5066 -5.561
1 -11.5825 2.82542 5.51851
1 11.7797 -2.84611 -5.48871
1 -7.61492 -7.37987 7.82981
1 7.68721 7.56598 -7.86798
1 -10.2251 -2.87793 7.8566
1 10.3742 2.93152 -7.8148
1 -1.98045 -4.17274 -12.8112
1 2.08795 4.27172 12.7408
1 -4.57032 0.390736 -12.6848
1 4.58804 -0.462462 12.8342
1 -7.73932 -4.48831 10.1688
1 7.82749 4.46148 -10.087
1 -9.36998 -9.84992 -1.05097
1 9.56622 9.88084 1.10706
1 -13.2576 -3.36626 -0.93938
1 13.3795 3.19397 1.11991
1 -4.68658 1.9673 12.5088
1 4.53452 -1.69808 -12.8708
1 -0.682103 -4.99424 12.6876
1 0.731678 5.03048 -12.6443
1 -5.99442 -11.6025 -3.40069
1 6.2179 11.5085 3.37338
1 -13.032 0.462392 -3.3129
1 13.0356 -0.599821 3.42932
1 -4.88154 -7.547 -10.1128
1 4.94809 7.51577 10.2283
1 -9.08024 -0.538467 -10.2777
1 8.99152 0.50256 10.3344
1 -11.7619 -6.84997 1.3001
1 11.5812 6.6352 -1.11689
1 -10.4285 6.5436 -5.55789
1 10.2808 -6.55366 5.5808
1 -0.506922 12.3211 5.56776
1 0.646346 -12.2563 -5.6474
1 -6.25593 9.31761 7.76778
1 6.14611 -9.06335 -7.85897
1 -4.88726 9.8477 -7.80659
1 4.83275 -9.94645 7.84004
1 -3.36452 4.32856 12.6571
1 3.22447 -4.16102 -12.6895
1 -2.03789 5.01176 -12.4887
1 2.03596 -4.92965 12.5679
1 -4.7098 -2.7949 12.4891
1 4.70952 2.86086 -12.6224
1 -4.95582 -12.3053 3.28152
1 5.07014 12.1627 -3.32213
1 -13.0409 1.91361 3.2683
1 13.1567 -1.81776 -3.24562
1 -0.969577 8.7955 -10.3417
1 0.97049 -8.80608 10.1707
1 -6.32894 -6.76509 10.112
1 6.42702 6.79685 -9.96926
1 -9.15452 -2.17287 10.1606
1 9.16075 2.185 -10.0134
1 -7.18423 5.26406 10.188
1 7.12072 -5.12706 -10.2635
1 -4.72061 11.4553 -5.36645
1 4.63828 -11.4608 5.48283
1 -2.10852 -12.3979 -5.68767
1 2.21702 12.4008 5.71711
1 -11.7394 4.29374 -5.62526
1 11.6964 -4.32081 5.70435
1 -7.57681 9.93708 5.48123
1 7.69977 -9.76132 -5.42826
1 -9.20822 -6.8597 -7.86666
1 9.0196 6.78745 7.8271
1 -10.5143 -4.58899 -7.87068
1 10.4578 4.4823 7.861
1 -9.02107 -9.88091 3.46748
1 9.06649 9.67995 -3.27946
1 -12.983 -2.94623 3.54435
1 13.0064 2.73426 -3.26122
1 -2.02048 -8.87684 10.3587
1 1.84372 8.84874 -10.1225
1 -8.64915 2.61154 10.2189
1 8.60986 -2.44146 -10.2015
1 -7.46119 11.5157 -1.10805
1 7.49978 -11.6022 1.19802
1 -10.3803 -9.07351 1.3559
1 10.4251 8.91393 -1.11485
1 -6.24558 12.2229 1.25753
1 6.25821 -12.3443 -1.18865
1 -13.0873 -4.55752 1.41702
1 12.8953 4.39868 -1.16677
1 -6.05792 -0.411663 12.3886
1 5.9334 0.562955 -12.3122
1 -3.29828 -5.10239 12.4684
1 3.38688 5.12585 -12.4489
1 -11.6538 -6.8747 -3.28487
1 11.6203 6.71901 3.36972
1 -11.945 7.53522 0.982328
1 11.8463 -7.52414 -0.880444
1 -0.466217 14.0999 -1.10393
1 0.62078 -13.9758 0.929887
1 -8.9772 9.17097 -5.60002
1 8.90138 -9.12175 5.72457
1 -3.4103 12.2367 5.65038
1 3.4271 -12.2443 -5.72909
1 -10.297 -7.55958 -5.53968
1 10.3216 7.46378 5.58876
1 -11.5936 -5.3405 -5.43706
1 11.7225 5.26566 5.61491
1 -0.727667 -11.7776 -7.79296
1 0.789162 11.8137 7.77855
1 -10.3516 5.20616 -7.74729
1 10.4304 -5.23657 7.93379
1 -4.59575 -4.15205 -12.4389
1 4.69982 4.20102 12.3424
1 -5.96626 -1.90585 -12.3699
1 5.84655 1.92905 12.3706
1 -3.64807 9.06088 -10.023
1 3.68325 -8.94509 9.92026
1 -5.901 7.80811 10.0188
1 6.07417 -7.57498 -10.1092
1 -13.2511 5.26408 1.02543
1 13.1977 -5.51428 -0.831021
1 -1.98163 -14.0325 0.96671
1 2.15451 14.0631 -1.00478
1 -1.86928 11.454 7.68415
1 1.93205 -11.4285 -7.83978
1 -6.1645 -9.77011 7.61938
1 6.11084 9.64277 -7.70166
1 -9.02737 7.5771 -7.64777
1 8.86653 -7.50025 7.82388
1 -11.6202 -0.406975 7.61484
1 11.5883 0.274016 -7.72409
1 -0.646592 -6.45855 -12.6021
1 0.671951 6.45939 12.5981
1 -6.00474 2.70707 -12.5096
1 5.91695 -2.59946 12.6137
1 -7.56906 11.4677 3.39736
1 7.47761 -11.5394 -3.42194
1 -10.2452 -9.04813 -3.32304
1 10.3548 9.0196 3.34671
1 -6.07534 12.3458 -3.31672
1 6.04678 -12.2576 3.39749
1 -12.9525 -4.55097 -3.24779
1 13.0377 4.33546 3.38819
1 -9.06752 4.13381 -9.83795
1 9.08344 -4.25911 10.0255
1 -0.812949 -9.94215 -10.0317
1 0.841673 10.0897 9.92797
1 -6.24944 -11.257 5.40005
1 6.33841 11.2127 -5.52913
1 -12.8864 0.369744 5.36509
1 12.9248 -0.248068 -5.50721
1 -7.71601 -9.10336 -7.70464
1 7.59684 8.95446 7.67119
1 -11.6911 -2.12942 -7.75829
1 11.6363 1.97507 7.76746
1 -1.94094 6.39807 12.479
1 1.9864 -6.44947 -12.5102
1 -4.61744 4.97275 -12.4426
1 4.67532 -4.8333 12.3968
1 -11.5799 7.63623 -3.27392
1 11.6599 -7.96557 3.45767
1 -0.953822 13.9814 3.251
1 0.881048 -13.9345 -3.42444
1 -7.94532 6.46821 -9.88491
1 7.72294 -6.51412 10.059
1 -1.72818 9.91196 9.96532
1 1.7408 -9.94568 -10.1495
1 -10.448 9.72072 1.14471
1 10.5094 -9.67997 -1.02757
1 -3.10141 13.921 -1.04105
1 3.07395 -13.8736 1.09285
1 -4.73753 -12.2053 -5.62854
1 4.84051 12.1733 5.62671
1 -13.0344 1.84118 -5.55338
1 12.899 -1.95058 5.76465
1 -3.35125 -11.3925 -7.94219
1 3.45077 11.4557 7.8789
1 -11.6296 2.78585 -7.72162
1 11.5685 -2.81654 7.91306
1 -12.9114 5.55726 -3.58444
1 12.7148 -5.59413 3.61584
1 -1.65093 -13.7742 -3.43898
1 1.62596 13.8466 3.43909
1 -4.87054 -9.04831 9.92877
1 4.99904 9.12899 -9.97904
1 -10.3747 0.359073 9.92338
1 10.4464 -0.10245 -9.90679
1 -8.84551 -5.14874 -9.96582
1 8.85475 5.05395 9.84016
1 -7.58593 -11.7542 -1.18604
1 7.78829 11.7527 1.21138
1 -13.8383 -0.935572 -1.15143
1 13.8977 0.725266 1.26492
1 -8.97961 -9.75156 -5.46859
1 9.06161 9.7081 5.51765
1 -12.7655 -3.02538 -5.40183
1 12.7999 2.90691 5.57927
1 -3.52792 -6.44577 -12.2632
1 3.3816 6.51626 12.2935
1 -6.09406 4.20908 12.2263
1 5.86452 -3.96852 -12.2929
1 -0.634223 7.2945 -12.312
1 0.632815 -7.1403 12.2362
1 -7.2444 0.347037 -12.2499
1 7.21794 -0.178065 12.4417
1 -3.40174 -9.78804 -10.0537
1 3.58551 9.86605 10.0178
1 -10.3343 1.93969 -9.98889
1 10.3451 -1.87984 10.0647
1 -8.77264 -11.2447 1.14771
1 8.99683 11.0249 -1.03994
1 -14.1129 -2.15137 1.16376
1 14.0744 1.90888 -0.988299
1 -11.6675 -6.77525 5.74496
1 11.8665 6.68161 -5.55571
1 -10.102 6.55543 7.69558
1 10.2056 -6.48515 -7.64651
1 -0.632975 12.1498 -7.52345
1 0.509898 -12.1058 7.68543
1 -7.1033 1.94615 12.0038
1 7.07342 -1.79728 -12.1571
1 -1.87449 -7.23276 12.2376
1 1.92795 7.29414 -12.2727
1 -0.611382 -0.149595 -14.915
1 0.391208 0.489941 14.7746
1 -10.2868 9.8952 -3.40139
1 10.1297 -9.94731 3.53897
1 -3.44594 13.861 3.52815
1 3.47603 -13.8103 -3.49171
1 -7.51309 -7.40408 -9.75412
1 7.48879 7.37688 9.76381
1 -10.2031 -2.91068 -9.91352
1 10.1749 2.90735 9.98316
1 -0.478803 -14.5226 -1.23568
1 0.714756 14.7247 1.11559
1 -13.1417 6.79922 -1.29339
1 13.0359 -6.89857 1.39407
1 -14.4376 2.96691 1.02729
1 14.0901 -3.22799 -1.19039
1 -4.37746 -13.9276 1.12278
1 4.76937 13.7407 -1.03659
1 -4.52997 11.4649 7.79616
1 4.78716 -11.2964 -7.78671
1 -1.93119 -12.0131 7.63968
1 1.93683 11.8852 -7.49516
1 -11.3153 4.30287 7.6147
1 11.4296 -4.3002 -7.62776
1 -7.5679 9.64853 -7.71061
1 7.50989 -9.78571 7.90196
1 -5.95843 -5.15973 12.0654
1 6.16718 5.07861 -11.9833
1 -7.51654 -2.84269 12.0802
1 7.59563 2.76189 -12.0143
1 -0.87012 -1.71613 14.8225
1 0.707212 1.97977 -15.0655
1 -2.23138 0.445469 15.0565
1 2.03587 -0.313833 -15.053
1 -7.55427 -12.1029 3.38546
1 7.66079 11.8728 -3.32628
1 -14.3723 -0.62932 3.43779
1 14.2378 0.571496 -3.2134
