869
 Atoms. Timestep: 600
1 -2.3136 -5.46712 -11.7011
1 0.192556 -5.97339 -12.102
1 2.75743 -5.70878 -12.1631
1 -5.95269 -2.4841 -12.2871
1 -3.31227 -3.2165 -12.678
1 -0.866755 -2.38127 -13.7356
1 3.50526 -3.18694 -12.3518
1 5.95778 -2.36692 -12.1096
1 -6.39299 0.0440494 -12.3691
1 -4.56056 1.16836 -13.5502
1 -0.121496 0.208187 -14.1409
1 2.50129 0.956709 -13.5876
1 6.23143 0.31809 -12.4042
1 -6.05144 2.58039 -11.91
1 -3.77944 3.68839 -12.8774
1 -1.27542 4.30852 -13.3696
1 3.0875 3.39547 -12.6487
1 5.99479 2.82842 -12.2126
1 -2.92897 6.02101 -12.3231
1 -0.102098 6.15434 -12.0965
1 2.51176 5.83491 -11.6927
1 -2.28455 -9.32343 -9.19252
1 0.459478 -9.63502 -9.52714
1 3.19154 -9.04709 -8.96467
1 -6.00482 -6.53922 -9.54486
1 -3.40322 -5.32368 -9.10052
1 -0.49635 -5.36922 -9.66138
1 2.18099 -5.68853 -9.60359
1 6.86114 -6.07328 -9.59303
1 -9.21649 -3.01202 -9.18034
1 -5.16369 -2.46881 -9.89699
1 -2.67252 -2.74709 -9.15569
1 0.0379718 -2.89331 -8.8359
1 2.78665 -3.11678 -9.36716
1 5.43368 -2.92779 -9.57033
1 9.44967 -2.73135 -9.28516
1 -9.44919 -0.203027 -9.11591
1 -5.25636 0.44907 -9.75141
1 -2.60402 0.196279 -9.32225
1 0.170053 -0.262084 -9.26496
1 2.96123 -0.375552 -9.65608
1 5.65899 -0.242683 -9.85007
1 9.75187 -0.174416 -9.71388
1 -9.51448 2.58998 -9.11339
1 -5.24132 3.35343 -9.26181
1 -2.65308 2.82571 -8.80008
1 0.159904 3.1219 -8.77343
1 2.74556 2.85365 -9.60278
1 5.64482 2.48566 -9.59731
1 9.22259 3.09308 -9.16179
1 -6.28876 5.96415 -9.05022
1 -3.24827 6.52582 -8.90574
1 0.634932 5.76649 -9.48996
1 3.3693 6.03755 -8.86362
1 6.07585 6.52539 -9.528
1 -3.02374 9.18544 -9.23692
1 -0.0969127 9.68796 -9.50623
1 2.75594 9.46374 -9.43329
1 -2.04298 -12.5203 -5.75871
1 0.473176 -12.5312 -6.14669
1 3.22671 -11.8353 -5.90115
1 -5.65209 -9.56556 -6.11575
1 -2.92033 -8.67575 -6.08373
1 -0.234276 -8.90436 -6.32379
1 2.84596 -9.06067 -6.10254
1 6.86812 -9.15492 -6.20637
1 -9.24403 -6.76214 -6.39501
1 -6.48028 -5.74496 -6.05891
1 -3.85081 -6.02422 -6.61116
1 -0.323163 -6.21941 -5.83634
1 3.12065 -6.44467 -6.55973
1 5.95838 -6.41268 -6.19614
1 9.90028 -6.04114 -6.27014
1 -11.7503 -2.97794 -5.53231
1 -8.57822 -2.50991 -6.80369
1 -6.21415 -2.82225 -6.08915
1 -3.65044 -3.28604 -6.57286
1 -0.0385426 -2.90804 -5.88874
1 3.30143 -3.71254 -6.72474
1 5.92062 -3.6956 -6.79423
1 8.4827 -3.59333 -6.83659
1 12.2578 -2.19823 -5.84501
1 -12.0654 -0.385899 -5.61573
1 -8.65695 0.356824 -6.64346
1 -6.0259 -0.00288202 -5.96752
1 -3.26859 0.24817 -5.73605
1 0.407204 -0.305752 -5.74805
1 3.20667 0.00342626 -5.73935
1 6.00061 -0.0396119 -6.22451
1 9.10391 -0.458848 -6.2511
1 12.4318 0.405532 -6.31183
1 -12.4021 2.47521 -5.55512
1 -8.7284 3.02216 -6.18455
1 -6.23494 4.01463 -6.53666
1 -2.6622 2.89456 -5.89461
1 0.19104 2.99913 -5.9984
1 2.8805 2.8393 -5.77991
1 6.49591 2.72987 -6.98137
1 9.31173 2.34314 -6.4057
1 11.8913 2.95646 -6.17212
1 -10.1137 6.38601 -6.53209
1 -5.42559 6.73238 -6.44222
1 -2.74802 6.85218 -6.2229
1 -0.0193504 6.6884 -5.78764
1 3.58724 5.92104 -6.27576
1 6.287 5.42268 -7.06488
1 9.20502 6.5465 -6.19604
1 -6.46061 9.30112 -6.18608
1 -2.94837 9.53781 -5.53416
1 0.115075 9.24873 -5.72529
1 3.9742 8.54728 -6.16189
1 6.33029 9.75852 -6.401
1 -2.78568 12.1078 -6.0589
1 0.131803 11.9999 -5.72467
1 2.78071 12.4632 -6.06788
1 -5.45272 -12.5069 -2.67111
1 -2.98454 -12.4755 -3.2482
1 -0.412138 -12.9402 -3.6572
1 3.94815 -12.3033 -3.52243
1 6.29783 -11.8205 -2.58751
1 -8.84523 -9.64105 -2.76062
1 -6.27487 -8.86402 -3.32409
1 -3.49523 -9.38642 -3.50482
1 0.310112 -9.39632 -2.40042
1 3.05427 -9.46207 -3.17625
1 5.74315 -9.23342 -2.964
1 9.91146 -9.15185 -2.71181
1 -11.863 -6.44267 -2.46372
1 -9.33842 -5.86194 -2.93335
1 -6.75342 -6.12974 -3.3922
1 -2.88684 -6.00337 -2.96716
1 -0.061237 -5.78384 -3.21851
1 2.59197 -6.10438 -2.67863
1 6.43709 -6.77261 -3.51012
1 9.19796 -6.17393 -3.4329
1 12.1831 -5.53087 -2.5825
1 -12.2874 -4.04782 -3.26188
1 -9.36675 -2.78499 -2.98097
1 -6.52349 -3.12406 -3.2043
1 -2.99369 -3.42349 -2.66505
1 -0.124202 -3.16142 -2.92622
1 3.21605 -3.40094 -2.81492
1 6.11201 -3.13024 -2.9729
1 9.14123 -3.70381 -2.69228
1 12.5148 -3.00253 -3.26918
1 -12.6015 0.879574 -3.3403
1 -9.08706 -0.214451 -2.71198
1 -6.28823 0.0040263 -2.97103
1 -3.58455 0.32487 -3.09432
1 0.290096 -0.446775 -2.89333
1 3.20591 -0.313703 -3.02385
1 5.9415 -0.45441 -3.44895
1 8.83896 -0.309004 -3.61227
1 12.7117 -0.608556 -3.88935
1 -12.3017 3.39953 -3.04308
1 -9.36864 3.814 -3.42522
1 -6.70315 3.88721 -3.62762
1 -2.87577 3.17623 -3.09919
1 -0.0536464 3.37203 -3.22585
1 3.40129 3.16194 -3.01257
1 6.23542 3.0324 -2.71384
1 9.14058 2.83391 -3.60885
1 12.6226 3.59853 -3.81857
1 -12.4568 6.02236 -2.75593
1 -9.07521 6.43758 -2.87795
1 -6.3908 6.5056 -3.2715
1 -2.82553 5.89769 -2.61694
1 0.0366996 6.17582 -2.88933
1 3.73251 6.05256 -3.27576
1 6.47501 5.66795 -2.71942
1 9.14958 5.49317 -3.5291
1 12.1424 5.95912 -2.71502
1 -9.4596 9.29688 -2.73558
1 -6.02524 9.17419 -3.31663
1 -3.34694 9.68968 -2.72758
1 0.436516 9.15777 -3.04674
1 4.35205 8.80199 -3.55647
1 6.93867 8.29075 -2.83561
1 9.24984 9.42645 -2.70683
1 -6.15102 11.9926 -2.72216
1 -3.73442 12.4691 -3.70794
1 0.685765 12.3349 -2.81437
1 3.26022 12.576 -3.29915
1 5.86695 12.2493 -2.64779
1 -6.06529 -12.958 0.0278703
1 -3.74402 -13.1198 -0.727128
1 -0.0890269 -11.9901 0.0771833
1 2.45023 -12.8773 0.610295
1 6.47576 -11.9185 0.045084
1 -8.98059 -9.7187 0.154149
1 -6.38375 -9.05516 0.212559
1 -3.51469 -8.74202 0.427325
1 -0.211772 -9.35176 0.132886
1 2.56034 -9.40903 -0.504278
1 5.94823 -9.25291 -0.199283
1 9.92776 -9.02012 -0.0060296
1 -12.2344 -6.79191 0.065704
1 -9.6022 -6.15058 0.340308
1 -6.11778 -6.34842 0.241943
1 -3.39509 -6.20885 0.068022
1 -0.873497 -6.97891 0.82575
1 3.18142 -6.03784 0.171817
1 5.94721 -6.54674 0.181181
1 9.64127 -5.8242 -0.706766
1 12.7581 -5.77182 -0.0331563
1 -13.2666 -2.75324 1.53095
1 -8.98993 -3.57656 0.692132
1 -6.37092 -3.47014 0.428803
1 -3.39298 -3.40275 -0.0071206
1 -0.411017 -2.92604 0.00393359
1 3.22206 -3.47474 0.102511
1 6.21764 -3.37284 -0.295742
1 9.01285 -2.96568 -0.0567735
1 13.3827 -3.32681 0.778028
1 -13.3778 -0.571798 -0.01243
1 -9.0296 0.159512 -0.0140918
1 -6.33835 0.276758 -0.374436
1 -3.62208 0.434896 -0.475822
1 0.0460285 -0.0437718 0.0519854
1 2.88572 0.186396 -0.158646
1 6.63209 0.113876 0.443422
1 9.2139 -0.187761 0.161631
1 13.4345 1.41541 0.0999952
1 -13.1611 3.94894 0.682599
1 -9.17105 2.75808 0.239662
1 -6.12509 3.2419 0.246173
1 -3.33007 3.31108 -0.303559
1 0.187658 2.64851 0.282536
1 3.18729 2.86291 -0.0323219
1 6.16821 2.86563 0.104835
1 9.68123 2.49748 0.0700123
1 13.2225 3.78176 -1.31846
1 -12.6401 6.3094 -0.224668
1 -9.22227 6.57352 0.0939306
1 -6.35967 6.02991 0.331628
1 -3.00218 6.24293 -0.0232024
1 0.218729 6.30244 0.170718
1 2.97509 6.2153 0.432782
1 6.66065 5.69598 0.203605
1 10.2333 5.41558 0.152789
1 12.6535 6.10288 0.0239197
1 -9.58884 9.37667 0.0634657
1 -5.4706 9.93643 -0.630178
1 -3.03388 9.38373 -0.00457338
1 0.810116 9.52059 -0.321872
1 3.31763 8.88627 0.0838484
1 7.05278 8.68251 -0.0350675
1 9.61185 9.70206 -0.0349342
1 -6.46952 12.3897 0.00261144
1 -2.63953 13.4858 0.557403
1 -0.141686 13.1329 -0.238286
1 3.89496 13.0246 1.09619
1 5.96547 12.4397 -0.054803
1 -5.86076 -12.7611 2.77554
1 -3.39878 -12.5365 3.28463
1 -1.14202 -13.4781 4.01054
1 3.35221 -12.313 3.21832
1 6.15284 -11.7501 2.73776
1 -9.2436 -9.91015 2.94441
1 -6.22327 -9.25424 4.32742
1 -3.63256 -9.73223 3.3141
1 -0.443207 -8.89763 2.95671
1 3.47405 -9.74071 3.35302
1 6.07895 -9.19699 2.597
1 9.67422 -8.65141 2.78574
1 -12.0823 -6.62539 2.83244
1 -9.48427 -6.16669 3.47091
1 -6.96955 -6.77483 4.18975
1 -3.41356 -5.30272 4.10095
1 -0.128492 -6.39732 3.29004
1 2.96887 -5.94015 2.95098
1 6.36102 -6.49522 2.80673
1 8.98882 -5.8233 3.34632
1 12.584 -5.31531 2.58727
1 -12.5035 -3.91849 3.65564
1 -9.68677 -3.41899 3.25953
1 -5.92359 -2.96055 3.05789
1 -3.29857 -2.95334 3.00762
1 -0.488005 -2.58923 2.60369
1 3.02444 -3.15995 2.99408
1 7.27912 -4.07725 4.04905
1 9.71771 -3.30102 3.72723
1 12.5442 -2.88922 3.34735
1 -14.0317 1.76715 4.09554
1 -9.49076 0.032713 2.91721
1 -6.05079 -0.295365 3.42024
1 -3.26358 -0.247367 3.39497
1 -0.328175 -0.00520993 2.78168
1 3.34957 -0.47127 3.38134
1 6.39599 -0.0347388 3.01912
1 9.22192 -0.981914 2.52261
1 13.2619 -0.49889 4.10762
1 -12.4047 3.45954 3.08702
1 -9.66463 2.65275 2.90575
1 -6.02034 3.42209 2.92897
1 -3.05943 2.75414 3.17532
1 -0.199328 2.60342 3.0633
1 3.40947 3.1509 3.23569
1 6.25365 2.60996 2.83266
1 10.6939 3.31896 2.38149
1 12.8173 3.56867 3.81296
1 -12.4603 5.97213 2.39895
1 -9.22206 6.41187 3.14148
1 -6.34712 6.10705 3.01649
1 -2.65883 6.56222 2.59355
1 0.0363136 6.33232 2.97933
1 3.08911 6.08885 3.15934
1 6.8474 5.86643 3.02125
1 9.43364 5.86252 3.68432
1 11.8522 5.77331 2.53917
1 -9.5491 9.22712 2.7452
1 -5.58589 9.70234 2.73739
1 -2.91236 9.34094 2.79697
1 -0.171407 9.31508 3.19271
1 3.85619 8.99502 3.37886
1 6.61814 8.61915 3.0838
1 9.24651 9.43083 2.78071
1 -6.17231 12.2891 2.73396
1 -3.57865 12.9456 3.25569
1 0.683501 12.9694 4.06544
1 3.18409 12.6449 3.50884
1 5.72104 12.4135 2.69011
1 -2.57874 -12.4594 5.91032
1 0.187756 -12.1921 6.00831
1 2.90915 -11.6922 6.01735
1 -6.47271 -10.3948 6.7285
1 -3.63235 -8.55677 6.98858
1 0.0544059 -9.17308 5.85606
1 3.21455 -9.11439 6.05243
1 6.9395 -9.2174 6.49905
1 -9.71537 -7.22464 6.69959
1 -7.22127 -5.94478 6.87788
1 -3.17731 -6.1247 6.60293
1 0.042579 -6.40202 5.90608
1 2.8821 -6.45909 6.00007
1 5.13482 -7.24183 7.05647
1 9.99438 -5.91848 6.42333
1 -12.1894 -3.32965 6.11058
1 -9.62527 -2.82201 6.01442
1 -7.04965 -3.17461 6.90316
1 -2.9793 -3.65502 6.36131
1 -0.118292 -3.02322 6.35382
1 3.36398 -2.89279 5.56288
1 6.17365 -3.09935 6.13382
1 8.73458 -3.51508 6.40376
1 12.6676 -2.13387 5.99763
1 -11.7006 -0.481551 6.58752
1 -9.30679 0.0846658 5.64009
1 -6.50066 -0.273678 6.23883
1 -3.61562 0.0242547 6.1456
1 0.329742 -0.234439 6.45417
1 3.0718 -0.291774 6.1177
1 5.76236 -0.460757 5.88171
1 9.46228 -0.044748 6.62141
1 12.283 0.378089 6.30694
1 -12.4283 3.12161 5.79884
1 -9.69902 2.83399 5.74209
1 -7.17431 3.74378 6.70142
1 -3.0576 2.94688 5.7542
1 -0.390713 3.15054 6.08062
1 3.38966 3.47521 6.03559
1 6.22765 3.12387 6.1076
1 8.77741 3.11052 6.64013
1 12.2505 2.9751 6.14316
1 -9.43946 6.32289 6.1335
1 -6.46119 6.24511 5.56069
1 -4.2295 7.3751 6.72245
1 -0.0448724 6.02782 5.9031
1 2.83557 6.04528 5.8722
1 7.33805 5.54216 5.54156
1 9.63324 6.70754 6.37857
1 -6.3986 9.29233 6.35683
1 -3.20057 9.60367 5.38606
1 -0.383778 9.68278 5.73135
1 3.47582 8.69005 5.9689
1 6.03194 9.55262 6.17181
1 -3.15697 12.2272 5.98749
1 -0.409459 12.3834 6.32609
1 2.33413 12.3944 6.03563
1 -2.77683 -9.53541 9.37984
1 -0.0429143 -9.65767 9.6051
1 3.28562 -8.9825 9.0135
1 -6.50478 -6.89455 9.53939
1 -3.03483 -6.13383 9.26576
1 0.853299 -4.86526 9.92855
1 3.0654 -6.28925 8.81589
1 6.92654 -6.16238 9.82161
1 -9.29667 -3.4644 9.46085
1 -6.44304 -3.00738 9.42775
1 -2.96302 -3.46516 9.48837
1 -0.317917 -2.82775 8.91332
1 3.36442 -3.57832 9.61014
1 6.2308 -3.76494 8.70729
1 9.60081 -2.44128 9.41573
1 -10.1047 0.418984 9.06679
1 -6.31628 -0.14287 8.87461
1 -3.82609 0.485671 8.96169
1 0.21616 0.0979092 9.06664
1 3.06254 0.135998 9.11888
1 5.79659 -0.256422 9.43626
1 9.50816 0.297181 9.41073
1 -9.69663 3.06174 9.34454
1 -6.04878 3.08221 9.07196
1 -3.17107 3.20261 8.49818
1 -0.287516 2.89633 8.88072
1 3.67865 3.72523 8.73716
1 6.31625 3.20962 8.85816
1 9.18472 3.08439 9.21581
1 -6.73513 6.48826 9.76118
1 -3.2579 5.89791 8.9892
1 -0.634749 5.8355 8.57163
1 2.89762 6.36776 8.51021
1 6.246 6.72839 9.68467
1 -3.05546 9.21174 9.37451
1 -0.271214 9.18435 9.38237
1 2.53098 9.02188 9.08809
1 -2.66421 -5.83849 11.8237
1 -0.0324536 -5.99822 12.0759
1 2.62901 -5.6447 11.7344
1 -6.36275 -2.87012 11.9808
1 -3.5526 -3.47758 12.3177
1 -1.31973 -4.4723 13.5603
1 3.48789 -3.27062 12.62
1 5.96857 -2.53809 12.0587
1 -6.4745 0.0192649 12.0783
1 -4.78255 -1.36829 13.3934
1 -0.250312 -0.26046 11.6894
1 3.51836 0.795171 12.6758
1 5.97676 0.245473 12.1177
1 -5.90398 2.49188 11.5671
1 -3.5207 3.33703 12.1758
1 0.77327 3.67194 12.493
1 3.54187 3.37309 12.369
1 6.00281 2.93066 12.1949
1 -2.93923 5.76886 12.0339
1 -0.257435 6.01394 12.3642
1 2.52886 5.68004 12.1371
1 -2.66268 -0.599137 -13.8281
1 1.75229 -1.59323 -13.7128
1 -2.02526 1.95827 -13.6954
1 0.597814 2.62363 -13.4813
1 -3.64757 -7.46594 -10.4877
1 -1.16116 -7.72993 -10.8042
1 1.76119 -7.89836 -10.845
1 4.3265 -7.16392 -10.4225
1 -7.19202 -4.1316 -10.4754
1 -4.84007 -4.86799 -11.3496
1 -1.02378 -3.25566 -11.3376
1 1.12282 -3.98788 -13.1265
1 5.16348 -4.85145 -11.2265
1 7.52969 -3.84765 -10.6028
1 -7.96421 -1.44613 -10.897
1 -3.71896 -1.03756 -11.3711
1 -0.955116 -0.583418 -11.7301
1 1.1744 -1.82232 -11.0595
1 4.14375 -0.858501 -13.1431
1 7.91302 -1.1622 -11.0003
1 -7.91029 1.3396 -10.6711
1 -3.64236 1.6828 -11.2268
1 -1.09547 1.9563 -10.8247
1 1.26989 1.11907 -11.1852
1 3.98038 1.28497 -11.4351
1 7.95526 1.40818 -10.8341
1 -7.49775 3.98402 -10.2968
1 -5.21698 5.01098 -11.2942
1 -1.66012 4.69865 -10.349
1 0.820958 3.79496 -11.2768
1 4.84098 4.91144 -11.1283
1 7.32543 4.30945 -10.6635
1 -4.33341 7.55744 -10.8705
1 -1.47264 7.69405 -10.6406
1 1.23954 7.84959 -10.7916
1 4.06593 7.63889 -10.8204
1 -3.56977 -10.769 -7.3287
1 -0.972537 -11.1022 -7.88006
1 1.59761 -10.7608 -7.63043
1 4.8185 -10.2141 -7.25312
1 -7.0113 -7.77065 -7.52237
1 -4.67735 -8.60059 -8.28644
1 -1.69739 -7.14195 -7.89902
1 0.98065 -7.38343 -8.01056
1 5.65519 -8.06492 -8.36464
1 7.98883 -7.20945 -7.57312
1 -10.3856 -4.42636 -7.20985
1 -8.11692 -5.39337 -8.31945
1 -5.75738 -4.37856 -8.14039
1 -1.4843 -4.55059 -7.42847
1 1.11553 -4.85108 -7.5311
1 4.64606 -5.34305 -8.43601
1 9.17871 -5.17225 -8.72285
1 10.9778 -3.86229 -7.35514
1 -10.8513 -1.69653 -7.5768
1 -6.94053 -0.986605 -8.40739
1 -4.4132 -1.13974 -7.75308
1 -1.7194 -1.37323 -7.14382
1 1.88694 -1.50965 -7.47936
1 4.45596 -1.44341 -7.72483
1 7.16096 -1.61502 -8.0996
1 11.209 -1.27476 -8.01039
1 -11.0826 1.10842 -7.52557
1 -7.1344 1.93632 -8.07369
1 -4.63676 1.88859 -7.33349
1 -1.08529 1.1782 -7.3526
1 1.62872 1.34766 -7.49232
1 4.24913 1.22358 -7.92441
1 7.88916 0.940545 -8.22186
1 11.0218 1.39129 -8.12492
1 -10.9784 3.87668 -7.40532
1 -8.55584 4.898 -8.09997
1 -3.90403 4.66924 -7.30883
1 -1.16229 5.09956 -7.57038
1 1.64439 4.74626 -7.36673
1 4.31839 3.85792 -7.7643
1 8.40528 5.50381 -8.65446
1 10.4385 4.54593 -7.49245
1 -7.71498 7.33446 -7.34751
1 -5.52376 8.41522 -8.4192
1 -0.949302 7.85738 -7.93249
1 1.7568 7.80889 -7.45714
1 5.188 8.81985 -8.69048
1 7.29807 7.68115 -7.48054
1 -4.30505 10.5247 -7.42388
1 -1.52706 10.5789 -7.54875
1 1.3203 10.8779 -7.76589
1 4.03457 10.8391 -7.46305
1 -7.04743 -11.044 -4.1555
1 -4.58822 -11.6971 -5.08222
1 -1.29835 -10.5299 -4.27613
1 1.23947 -10.5714 -4.53808
1 5.63799 -11.1531 -4.9992
1 7.84524 -10.1661 -4.04799
1 -10.2433 -7.94301 -4.20358
1 -8.10131 -8.90863 -5.36783
1 -4.68764 -7.27233 -4.5637
1 -1.34494 -7.88996 -4.10225
1 1.49715 -7.54363 -4.57792
1 4.22901 -7.54939 -4.42135
1 9.05362 -8.34742 -5.34457
1 11.2046 -7.41342 -4.28201
1 -11.0739 -5.55188 -4.9286
1 -8.23632 -4.28814 -4.87921
1 -4.66305 -4.63361 -4.46358
1 -2.01708 -4.30859 -4.84027
1 1.73278 -4.70724 -4.83761
1 4.54968 -4.87139 -4.6554
1 7.50447 -4.62556 -4.67115
1 11.5528 -4.72588 -4.93427
1 -12.6561 -1.61993 -3.47006
1 -7.89297 -1.34754 -4.68471
1 -4.49504 -1.84522 -4.36207
1 -1.7322 -1.53699 -4.33892
1 1.99543 -2.05864 -4.66656
1 4.58061 -2.15361 -4.88294
1 7.30947 -2.03912 -5.04948
1 9.95359 -2.48819 -4.66812
1 -10.2594 1.39403 -4.66631
1 -7.67681 1.5203 -4.40736
1 -5.00594 2.10946 -4.68478
1 -1.29111 1.23592 -4.2462
1 1.49523 1.49885 -4.12915
1 4.83065 1.65259 -4.54685
1 7.40082 1.53296 -4.82731
1 11.0133 1.27233 -4.39268
1 -11.8144 5.15584 -5.05462
1 -7.89526 5.5349 -5.20985
1 -4.4376 5.01502 -4.63338
1 -1.55938 4.96776 -4.72265
1 1.66221 4.82901 -4.52935
1 5.10893 4.26134 -4.90063
1 7.74756 4.20088 -5.25804
1 11.3454 5.31326 -5.17444
1 -10.8861 7.64084 -4.21637
1 -8.50421 8.3116 -4.98669
1 -4.26588 7.60735 -4.29429
1 -1.62285 7.94679 -4.03145
1 2.08814 7.64728 -4.55449
1 5.80227 7.06872 -4.96905
1 8.31594 8.63571 -5.22933
1 10.5082 7.61603 -4.0318
1 -7.82189 10.6695 -4.21797
1 -5.37203 11.2763 -5.13749
1 -1.4025 11.0624 -3.93899
1 2.25854 10.4125 -4.6375
1 4.93036 11.4659 -4.98019
1 7.19827 10.5585 -3.97886
1 -1.4503 -13.6532 -1.40394
1 0.973122 -13.8774 -1.55755
1 -7.33714 -11.1228 -1.27124
1 -4.62879 -10.4691 -1.34482
1 -2.001 -10.6904 -1.2815
1 1.82268 -11.5974 -2.09075
1 4.2196 -12.542 -1.06584
1 8.23979 -10.5532 -1.32018
1 -10.5404 -8.2461 -1.33288
1 -7.89834 -7.44225 -1.37049
1 -4.72806 -7.58565 -1.74068
1 -1.8068 -7.84578 -1.53947
1 0.841624 -7.2874 -1.0994
1 4.31925 -7.69079 -1.54288
1 7.76649 -7.78701 -1.5143
1 11.4839 -7.55957 -1.42436
1 -10.7772 -4.21185 -1.15499
1 -7.78572 -4.66883 -1.33563
1 -5.10587 -4.7419 -1.62638
1 -1.33928 -5.06439 -1.05749
1 1.22115 -4.57474 -1.11463
1 4.7687 -5.09962 -1.74902
1 7.36013 -5.17371 -1.67062
1 11.4086 -3.66582 -1.01547
1 -13.1346 -2.80387 -1.14199
1 -11.1011 -1.2765 -1.22403
1 -7.73133 -1.86418 -1.17167
1 -4.85518 -1.84049 -1.59568
1 -1.9216 -1.284 -1.55874
1 1.68581 -1.90423 -1.17775
1 4.68906 -1.59062 -1.28758
1 7.58068 -1.45551 -1.60807
1 10.3735 -1.55284 -1.98267
1 13.0272 -1.08443 -1.05871
1 -13.1284 1.95173 -1.04737
1 -10.5919 1.79095 -1.80263
1 -7.84035 1.98383 -1.82807
1 -5.11269 2.21342 -1.94923
1 -1.38648 1.45788 -1.4936
1 1.38458 1.61377 -1.65794
1 4.93914 1.114 -1.44773
1 7.74005 1.19254 -1.6032
1 10.3925 1.05845 -1.97427
1 13.0316 1.38334 -2.45305
1 -10.7015 4.60289 -1.20986
1 -7.86305 4.68056 -1.38647
1 -5.03789 4.84023 -1.64744
1 -1.14535 4.41566 -1.09436
1 1.7694 4.70641 -1.46492
1 4.5807 4.68889 -1.2102
1 8.24496 4.12589 -1.36055
1 10.7468 3.77692 -1.93693
1 -11.1346 7.90953 -1.43994
1 -7.34677 8.14392 -1.18926
1 -4.70786 7.59409 -1.55486
1 -1.31671 8.01166 -1.48542
1 2.06927 7.5318 -1.77215
1 4.94212 7.32789 -1.34847
1 8.54843 6.79504 -1.2641
1 10.9784 7.83395 -1.31477
1 -8.03079 10.8348 -1.33496
1 -4.19672 12.8083 -1.23589
1 -1.15922 10.8004 -1.38532
1 2.67084 10.4341 -2.01355
1 5.23547 10.0053 -1.3447
1 7.75627 11.0573 -1.42633
1 -1.81282 13.1778 -2.12686
1 2.34738 12.9166 -0.939465
1 -1.84108 -13.5233 1.309
1 0.783577 -13.1344 2.42428
1 -7.50682 -11.3125 1.46754
1 -4.65008 -11.0166 1.20679
1 -1.94184 -10.7891 1.50599
1 1.58428 -10.4785 1.61936
1 4.28713 -10.9794 1.06393
1 8.12807 -10.3116 1.42791
1 -10.6243 -8.29522 1.54219
1 -8.00062 -7.74939 1.92122
1 -5.27696 -7.78607 2.36269
1 -2.66712 -7.30345 2.50724
1 1.54031 -7.65772 1.49622
1 4.11382 -8.05731 1.54724
1 8.24792 -7.33454 1.17255
1 11.1953 -7.18234 1.41442
1 -11.3828 -4.49507 1.38757
1 -7.36083 -5.06827 2.28079
1 -4.73278 -4.96362 1.89862
1 -1.88858 -4.77594 1.76594
1 1.10826 -4.61582 1.60486
1 5.03713 -4.4302 1.86339
1 7.65159 -4.86354 1.25046
1 10.4913 -4.39975 1.41616
1 -12.91 -0.374828 2.66534
1 -10.7057 -1.72576 1.47267
1 -7.60013 -1.43513 1.57005
1 -4.80381 -1.42321 1.14315
1 -2.18817 -1.19904 1.11805
1 1.67565 -1.54279 1.47937
1 4.59384 -1.66971 1.30208
1 7.13902 -2.27513 1.85026
1 11.1744 -1.86362 0.86111
1 13.4695 -0.79954 1.54207
1 -13.7761 1.67877 1.46157
1 -11.2303 0.940251 0.854969
1 -7.42928 1.41655 1.93228
1 -4.7707 1.33842 1.67486
1 -1.97183 1.47202 1.27067
1 1.86354 1.41431 2.00523
1 4.53739 1.15597 1.61259
1 8.66009 1.5671 2.2463
1 11.1648 0.7626 1.72342
1 13.563 1.58235 2.60161
1 -10.59 4.61573 1.44853
1 -8.05104 4.52166 1.64424
1 -4.21993 4.73672 1.73088
1 -1.54151 4.42639 1.48462
1 1.56397 4.31234 1.67155
1 4.80151 4.72356 1.62342
1 8.36119 4.25193 1.5701
1 13.0327 3.87685 1.21852
1 -11.3349 7.97416 1.34829
1 -7.3955 7.99836 1.68417
1 -4.74158 7.83676 1.24104
1 -1.17431 8.21269 1.09042
1 1.63254 8.0945 1.82238
1 5.00074 7.4933 1.56468
1 8.61521 7.22069 1.54453
1 11.0972 7.92567 1.32823
1 -7.93542 10.8415 1.36775
1 -4.2466 11.5207 1.02312
1 -1.08093 10.8162 1.1974
1 2.36329 10.6572 1.85803
1 5.06332 10.2015 1.36632
1 7.66414 10.893 1.28899
1 -0.934745 13.3479 2.24898
1 1.50441 13.121 1.60196
1 -7.57164 -11.3412 4.29856
1 -5.15134 -11.9279 5.13488
1 -1.41425 -10.9049 4.26063
1 1.26762 -10.8974 4.09949
1 5.26455 -10.9545 5.06875
1 7.7441 -10.1307 4.22613
1 -10.6041 -8.204 4.37768
1 -8.57215 -9.23963 5.473
1 -4.56052 -7.4662 4.84771
1 -1.99962 -7.93998 4.98796
1 1.77456 -7.99017 4.16546
1 4.60816 -7.64075 4.33714
1 9.13594 -8.18978 5.45286
1 11.1946 -6.91647 4.17207
1 -11.5777 -5.75186 5.36061
1 -7.9542 -4.46663 4.80644
1 -5.47015 -4.74423 5.44376
1 -1.14427 -4.33687 4.43384
1 1.37923 -4.48948 4.52593
1 4.91818 -4.99261 4.70334
1 7.06335 -6.57325 5.32418
1 11.9889 -4.64292 5.15191
1 -11.2129 -1.52861 4.28985
1 -7.85517 -1.82228 4.39296
1 -4.74109 -2.07644 5.17415
1 -1.63644 -1.62238 4.78014
1 1.24323 -1.65914 4.39056
1 5.33549 -2.25019 3.87459
1 7.9458 -1.51758 4.80412
1 10.7093 -1.17059 4.59992
1 -11.5274 1.13929 4.3309
1 -7.64555 1.82469 4.5948
1 -4.97074 1.63295 4.56543
1 -1.42828 1.08805 4.87484
1 1.65037 1.34212 4.64151
1 4.60689 1.43402 4.70186
1 7.5775 1.19441 4.99341
1 10.265 1.56106 4.5367
1 -11.2892 5.2069 4.72267
1 -8.04982 4.48023 4.43233
1 -4.31436 5.0337 4.60528
1 -1.57621 4.63679 4.18616
1 1.33673 4.28616 4.37323
1 5.05578 4.66277 4.43357
1 8.2714 3.5765 4.13551
1 11.5564 5.35427 5.21245
1 -11.1803 7.7577 4.08504
1 -8.58056 8.44132 5.05823
1 -4.5988 7.77201 4.1385
1 -1.84846 7.50306 4.80457
1 1.50565 7.84855 4.51114
1 5.23626 7.11751 4.94267
1 8.39599 8.75567 5.12964
1 10.8045 7.82223 4.19708
1 -7.6103 10.5265 4.13821
1 -5.29048 11.3179 4.98986
1 -1.58329 11.4195 3.94512
1 1.85482 10.4023 4.50074
1 4.84074 11.5854 5.10453
1 7.21814 10.8265 4.17465
1 -4.082 -11.0634 7.47242
1 -1.36246 -11.0825 7.8381
1 1.38868 -10.7235 7.81408
1 4.82489 -10.4511 7.56461
1 -7.70974 -8.38928 7.7768
1 -5.40997 -9.2181 8.77494
1 -1.22863 -7.69472 7.84615
1 1.30725 -7.94545 7.74298
1 6.04711 -8.55391 8.97358
1 7.96796 -7.17483 7.71792
1 -10.6285 -4.89109 7.59642
1 -8.89619 -6.16467 8.89114
1 -4.96821 -4.59236 7.94228
1 -1.11346 -5.08448 7.93873
1 1.5674 -4.60616 7.44304
1 4.25069 -4.6379 7.30336
1 8.94105 -4.87902 8.66523
1 11.0627 -3.79032 7.42499
1 -10.9929 -2.20405 8.19616
1 -8.49292 -1.31256 7.91992
1 -4.65079 -1.89613 7.88643
1 -1.96858 -1.42733 7.46799
1 1.9417 -1.99576 7.83531
1 4.60624 -1.9376 7.81425
1 7.51796 -1.4985 7.93682
1 11.3415 -1.04974 8.16653
1 -11.4445 2.12698 7.79122
1 -8.00335 1.51271 7.58985
1 -5.18743 2.00697 7.03804
1 -1.68553 1.17413 7.57888
1 1.68875 1.80062 7.42105
1 4.57549 1.50134 7.56813
1 7.28153 1.10925 7.68788
1 11.0567 1.86461 7.97083
1 -10.8144 4.53519 7.30534
1 -8.77367 5.40903 8.55646
1 -5.00502 4.84384 7.38158
1 -2.44676 5.34551 6.66457
1 1.41343 4.41925 7.46213
1 5.24422 5.54938 7.3225
1 8.14804 5.31345 8.24394
1 10.6331 4.59195 7.43767
1 -7.74374 7.60703 7.5423
1 -5.61411 8.53747 8.76669
1 -1.70805 7.95927 7.40033
1 1.10658 8.00201 7.20949
1 4.90642 8.42347 8.29825
1 7.39525 7.59298 7.2819
1 -4.47321 10.4694 7.51676
1 -1.79275 10.7611 7.84218
1 1.02997 10.7934 7.79104
1 3.76861 10.7584 7.37035
1 -4.25026 -7.693 10.7455
1 -1.48776 -7.96487 10.913
1 1.26864 -7.58185 10.4388
1 4.52999 -7.23117 10.6973
1 -7.62489 -4.85164 10.8319
1 -5.02991 -5.19075 10.9005
1 -1.02218 -3.33826 11.3471
1 1.04371 -3.73747 12.9421
1 5.23561 -4.8156 11.2653
1 7.69043 -3.88382 10.7737
1 -8.25522 -1.13904 10.4357
1 -4.54165 -1.473 10.5523
1 -2.0135 -1.08667 10.0372
1 1.49973 -1.93183 10.6608
1 3.98185 -1.33433 11.0705
1 7.86757 -1.14179 10.81
1 -7.99564 1.51364 10.4814
1 -3.92362 0.913434 12.337
1 -2.00776 1.54032 10.3493
1 1.73801 2.04358 10.4178
1 4.52523 1.88809 10.3877
1 7.69928 1.70963 10.7405
1 -7.71545 4.17816 10.5984
1 -5.19454 4.97239 11.0411
1 -1.43871 4.20515 10.6851
1 1.32966 4.62116 10.0225
1 5.08155 5.36626 11.5701
1 7.4457 4.53376 10.6393
1 -4.38537 7.4863 10.7772
1 -1.64979 7.47659 10.7676
1 1.12282 7.41036 10.6748
1 3.95622 7.47339 10.6093
1 -2.34793 -1.26314 12.6736
1 1.95645 -1.18634 13.1764
1 -1.43258 1.84809 12.8431
1 1.1209 1.29015 13.2785
