4321
 Atoms. Timestep: 4193
2 0.23467 -7.75587 -22.6624
1 -3.6215 -3.93179 -22.9231
2 -0.00668848 -4.17541 -23.3574
3 4.06622 -3.95518 -22.5898
1 -7.27812 -0.281321 -22.8434
2 -3.32022 -0.0909646 -22.9893
2 -0.0490489 -0.310478 -22.8568
2 3.82151 0.0568921 -23.0777
2 7.82315 -0.0545038 -22.5365
1 -3.51508 3.77271 -22.6539
1 0.207428 3.75454 -22.7564
2 4.059 4.02367 -22.8799
2 0.364565 7.45463 -22.6605
3 -7.72521 -11.4155 -18.7786
1 -3.7499 -11.8277 -18.9281
3 0.129759 -11.5597 -18.8412
2 4.31894 -11.809 -19.156
2 8.03191 -11.8317 -18.3181
3 -11.1089 -7.71018 -18.7688
2 -7.7059 -7.73283 -19.0804
1 -3.76036 -7.73312 -19.0759
2 0.00551712 -7.73332 -18.9068
3 3.76851 -7.59817 -18.8372
2 7.92189 -8.08312 -18.9577
2 11.559 -7.96585 -18.5708
1 -11.5115 -4.11569 -19.3146
1 -7.53817 -3.87041 -19.0424
2 -3.77294 -3.92717 -19.0785
2 0.195229 -3.80142 -18.9892
2 3.86406 -3.89087 -18.8479
2 7.75948 -3.92672 -18.7629
3 11.5043 -3.92494 -18.8925
1 -11.3261 -0.0150651 -19.1782
3 -7.68146 -0.224449 -19.17
2 -3.66117 -0.0657402 -18.8849
2 0.203629 -0.067572 -18.9641
1 4.00047 0.0101799 -18.9045
2 7.76804 -0.0171077 -18.8199
2 11.6275 -0.197223 -18.8463
2 -11.8177 4.29035 -19.6412
1 -7.40725 3.62303 -19.1328
1 -3.57334 3.7093 -19.0016
2 0.153534 3.72986 -19.0205
2 3.9071 3.66571 -18.8356
1 7.79183 3.89447 -18.8588
1 11.885 4.14885 -19.238
1 -11.6292 8.09739 -19.155
2 -7.4098 7.26558 -18.9609
2 -3.6551 7.48419 -19.0524
3 0.126752 7.49319 -18.7747
1 3.95647 7.56443 -19.027
1 7.74983 7.48611 -18.7825
2 11.3139 8.14688 -18.4347
2 -7.67149 11.5256 -19.0134
2 -3.62472 11.514 -19.0511
2 0.216722 11.3419 -18.8826
2 4.61446 11.7397 -19.2802
2 7.42632 11.4884 -19.0003
1 -7.92455 -15.3223 -15.2214
2 -3.60814 -15.3077 -15.4551
1 -0.0228911 -15.1938 -15.1585
3 4.04431 -15.4689 -15.4252
1 8.36312 -15.8116 -15.565
1 -11.8336 -11.6728 -15.6362
2 -7.51331 -11.5435 -15.2355
2 -3.67772 -11.2472 -15.1901
3 -0.0299276 -11.4197 -15.1541
2 3.66921 -11.4162 -15.0105
2 7.65515 -11.6098 -15.0587
2 12.5026 -12.6538 -15.8326
2 -15.4508 -7.95146 -15.4387
1 -11.6041 -7.59626 -15.1628
3 -7.46514 -7.60977 -15.1259
2 -3.71814 -7.40411 -15.0886
2 0.008978 -7.47103 -14.9969
1 3.83299 -7.55747 -15.0701
1 7.6036 -7.6138 -15.0464
3 11.2655 -7.74918 -14.8481
2 15.1828 -8.5855 -15.0125
1 -15.4382 -3.72984 -15.5774
3 -11.1626 -3.66936 -15.3169
3 -7.48333 -3.85056 -15.2235
1 -3.70708 -3.882 -15.1262
2 0.164185 -3.77271 -15.0816
2 3.83441 -3.8387 -15.1983
3 7.55164 -3.84583 -15.0267
2 11.4963 -3.9057 -15.1245
1 15.5379 -4.05245 -15.4041
2 -14.9689 0.309836 -15.2386
3 -11.2717 -0.0483643 -15.2784
3 -7.60577 -0.0531981 -15.1949
3 -3.65686 0.027269 -15.1606
3 0.103232 0.0216825 -15.2216
3 3.80354 -0.00768605 -15.0506
2 7.68947 -0.0802566 -15.1567
2 11.4305 -0.226088 -15.0756
2 15.1496 -0.0478547 -14.586
2 -15.598 4.08599 -15.9065
1 -11.2362 3.67631 -15.3439
3 -7.47068 3.68068 -15.1903
3 -3.67137 3.65669 -15.0906
2 0.0937 3.59803 -15.2913
3 3.82889 3.71268 -15.0708
3 7.64527 3.73222 -15.0807
2 11.1931 3.7907 -15.0172
2 15.4468 4.0128 -15.5558
2 -15.158 7.74682 -15.2203
2 -11.4755 7.431 -15.5369
2 -7.4273 7.44272 -15.3596
2 -3.75931 7.46481 -15.2167
2 0.0741044 7.44204 -15.0554
1 3.91 7.41884 -15.0863
3 7.68122 7.65745 -14.8792
2 11.2895 7.60494 -14.8628
1 15.1841 8.38862 -15.1264
1 -11.6055 11.5888 -15.4827
1 -7.73951 11.2714 -15.3367
2 -3.71632 11.36 -15.1606
2 0.0050801 11.4122 -15.0155
3 3.81192 11.2392 -15.0362
1 7.5848 11.4161 -14.9321
1 11.7511 12.089 -15.2731
3 -7.38179 14.9783 -15.1634
2 -3.83813 15.2045 -15.0932
1 0.158469 15.1775 -15.1533
2 3.87566 15.2705 -15.3021
2 7.62648 15.1649 -14.7226
2 -7.57561 -19.0352 -11.2339
2 -3.67348 -18.9789 -11.3081
2 -0.250651 -19.2886 -11.5626
2 3.96097 -19.3204 -11.537
2 8.15543 -19.1936 -11.703
1 -11.7951 -15.3716 -11.8409
3 -7.51689 -15.0408 -11.3394
3 -3.80569 -15.0972 -11.3238
1 -0.0315963 -15.1491 -11.4178
2 3.67427 -15.0683 -11.2605
1 7.61743 -15.4438 -11.3686
3 11.1677 -15.0687 -11.4086
1 -15.0505 -11.2204 -11.4427
2 -11.332 -11.2803 -11.2612
3 -7.5341 -11.2231 -11.3355
2 -3.77106 -11.2926 -11.2432
3 0.0207478 -11.3967 -11.2519
2 3.84293 -11.3433 -11.2951
3 7.35856 -11.4819 -11.2855
1 11.4722 -11.9853 -11.6153
2 16.3043 -12.8266 -12.3425
2 -18.8864 -7.48227 -11.3694
3 -15.0058 -7.57846 -11.338
2 -11.3456 -7.45937 -11.3282
2 -7.53549 -7.45659 -11.2479
3 -3.66771 -7.50185 -11.2606
2 0.0647534 -7.59437 -11.3
1 3.73832 -7.4987 -11.1913
1 7.57635 -7.51356 -11.1165
2 11.3491 -7.43796 -11.2896
2 15.0931 -7.36426 -11.3587
1 18.8015 -8.56695 -11.2772
2 -19.7491 -3.42378 -11.9699
2 -15.0062 -3.6342 -11.2939
2 -11.212 -3.76298 -11.4147
3 -7.52585 -3.69275 -11.3629
3 -3.68896 -3.88252 -11.3932
2 -0.0098572 -3.90191 -11.1984
3 3.64955 -3.88853 -11.2208
3 7.33333 -3.74275 -11.1524
2 11.2592 -3.76898 -11.235
2 15.0281 -3.83073 -11.145
1 19.3477 -4.40758 -11.7299
3 -18.608 0.134921 -11.3873
2 -15.2068 -0.104757 -11.4798
3 -11.2593 -0.0114277 -11.281
1 -7.46863 -0.0051226 -11.3927
2 -3.73824 -0.112262 -11.3697
2 -0.0705218 -0.177065 -11.24
1 3.79429 0.00978496 -11.3282
3 7.5346 0.00568313 -11.2498
3 11.1618 -0.132023 -11.2481
1 15.0657 -0.0223956 -11.4703
1 19.6105 0.007562 -11.7375
2 -19.1561 3.70824 -11.7106
2 -14.8439 3.86228 -11.4775
2 -11.2578 3.72903 -11.4255
1 -7.47884 3.59054 -11.3951
1 -3.68153 3.75446 -11.4293
3 -0.0322825 3.71316 -11.2426
2 3.67936 3.66057 -11.2495
3 7.447 3.70281 -11.2368
3 11.2653 3.68619 -11.3071
1 15.0849 3.81739 -11.2291
1 19.1096 4.17178 -11.6834
1 -18.9168 7.95645 -11.5626
1 -15.0041 7.78129 -11.4207
2 -11.1723 7.61616 -11.5096
2 -7.53137 7.56479 -11.3637
1 -3.65842 7.54295 -11.3439
1 -0.0430727 7.48961 -11.2668
3 3.76778 7.41082 -11.2268
3 7.37413 7.56007 -11.159
2 11.3066 7.65062 -11.3174
2 15.1338 7.63367 -11.4101
2 18.8657 8.09851 -11.3819
2 -14.7567 11.4918 -11.4187
2 -11.1342 11.2578 -11.2333
3 -7.6135 11.3404 -11.3502
2 -3.81187 11.1791 -11.3027
3 -0.00348012 11.3655 -11.2587
3 3.7897 11.2481 -11.1558
3 7.50005 11.2343 -11.2791
1 11.1141 11.2218 -11.2763
3 14.9932 11.6454 -11.1118
1 -11.4881 15.232 -11.6677
3 -7.54155 15.0812 -11.4152
2 -3.72542 15.1424 -11.4155
2 -0.0875155 15.0433 -11.2024
3 3.68688 15.0643 -11.2859
1 7.52182 15.1674 -11.2194
2 11.1226 15.044 -11.1886
1 -7.62987 18.8666 -11.7837
1 -4.11242 19.2279 -11.6692
3 -0.147127 18.8778 -11.4517
3 3.67696 18.8677 -11.2321
1 7.61368 19.0658 -11.4597
2 -0.149041 -22.9628 -7.467
2 -12.4416 -19.1266 -8.70458
2 -7.52935 -18.7809 -7.71185
1 -3.88565 -19.006 -7.39001
1 -0.148149 -19.0556 -7.49186
2 3.81636 -18.9805 -7.42824
1 7.43989 -18.9159 -7.4708
1 11.2663 -18.6228 -7.76393
3 -15.0833 -14.9254 -7.76199
1 -11.2449 -15.1898 -7.66413
2 -7.52175 -15.1062 -7.69193
2 -3.94129 -15.0788 -7.59601
3 -0.13793 -15.1204 -7.5219
2 3.7536 -14.9956 -7.45151
1 7.56199 -15.1521 -7.40673
1 11.2426 -15.2626 -7.52456
2 15.6197 -16.1841 -8.42691
2 -18.8398 -11.3669 -7.79741
2 -15.1019 -11.338 -7.57698
3 -11.2915 -11.2339 -7.48941
1 -7.56444 -11.2594 -7.5736
3 -3.7019 -11.1864 -7.50978
2 -0.00505815 -11.3046 -7.4845
2 3.69572 -11.2311 -7.42195
1 7.48609 -11.3136 -7.42716
2 11.193 -11.4439 -7.62936
2 14.8713 -11.5681 -7.63004
2 18.5612 -12.2019 -8.0414
2 -18.8461 -7.48587 -7.65735
3 -15.1989 -7.50141 -7.50415
2 -11.3487 -7.49746 -7.51896
3 -7.52974 -7.39842 -7.50055
3 -3.76666 -7.54658 -7.44539
3 0.0384492 -7.55882 -7.52891
3 3.67229 -7.48231 -7.4543
3 7.51193 -7.47425 -7.51369
3 11.3442 -7.60005 -7.55852
2 15.0952 -7.67365 -7.64102
1 18.6923 -7.80671 -7.86606
2 -19.0605 -3.75245 -7.73398
2 -15.2121 -3.77352 -7.6991
2 -11.0562 -3.60117 -7.44031
3 -7.46899 -3.72916 -7.52565
1 -3.83917 -3.6735 -7.50689
3 -0.00989312 -3.85333 -7.67478
3 3.66884 -3.74992 -7.51707
3 7.43406 -3.80508 -7.57781
3 11.2107 -3.80737 -7.44499
2 15.006 -3.7854 -7.55815
2 19.0567 -3.54967 -7.55529
2 -22.9041 0.112471 -7.25329
2 -18.7898 0.0998186 -7.68305
3 -15.0896 0.0418717 -7.56189
2 -11.264 -0.0468681 -7.4236
3 -7.45452 -0.0764304 -7.44415
3 -3.66313 0.0277791 -7.54847
3 0.0232274 0.0250614 -7.46587
3 3.74136 -0.0218461 -7.49587
3 7.37131 0.0582169 -7.41608
2 11.1877 -0.182387 -7.52315
3 14.8996 -0.0867203 -7.50456
1 18.7314 0.0157074 -7.55978
2 22.7193 0.104992 -7.56415
2 -18.8847 3.98772 -7.99771
3 -15.0146 3.82176 -7.60831
3 -11.3153 3.74594 -7.61158
1 -7.47324 3.68723 -7.5302
3 -3.71068 3.62457 -7.49665
3 0.0744032 3.77425 -7.4187
1 3.63828 3.69109 -7.46907
2 7.35888 3.82919 -7.4178
2 11.3311 3.82736 -7.38899
1 15.074 3.79653 -7.4683
1 18.9353 3.69146 -7.64517
1 -19.0958 6.79586 -8.49419
2 -15.2104 7.61863 -7.6467
2 -11.1856 7.60892 -7.54894
3 -7.40182 7.3268 -7.5846
2 -3.85008 7.58099 -7.46995
3 -0.121252 7.58954 -7.52863
2 3.70685 7.52355 -7.51924
2 7.48344 7.54922 -7.52198
1 11.3524 7.60408 -7.55174
2 15.0263 7.61285 -7.49384
3 18.9079 7.68873 -7.55328
1 -18.6158 11.5168 -8.13246
1 -15.3014 11.3906 -7.49261
2 -11.127 11.2179 -7.51177
3 -7.5505 11.3924 -7.53006
3 -3.77615 11.196 -7.49823
3 -0.0573707 11.2206 -7.56913
2 3.7006 11.1875 -7.4967
2 7.42233 11.3797 -7.54146
2 11.1296 11.441 -7.53609
1 15.1243 11.4124 -7.66847
2 18.8957 11.6018 -7.50723
1 -15.0355 15.2188 -7.78927
1 -11.4584 15.1361 -7.65854
2 -7.45574 14.9134 -7.55264
1 -3.84184 15.0239 -7.53049
3 -0.0730926 15.0323 -7.56502
2 3.60619 15.2036 -7.42718
2 7.46834 15.1457 -7.48946
3 11.1397 15.2201 -7.47967
2 14.8694 15.4002 -7.53502
2 -11.5099 19.0891 -8.00518
2 -7.5423 18.6731 -7.52465
1 -3.88763 18.8697 -7.48441
2 -0.179586 18.9506 -7.4832
2 3.69044 19.0048 -7.49085
1 7.38614 18.9982 -7.38078
1 11.2832 18.9537 -7.62601
1 -0.115406 22.5338 -7.49928
2 -4.54857 -23.2402 -4.27904
2 0.0198853 -22.9199 -3.73134
2 3.84907 -22.5855 -3.96495
2 -11.6889 -18.6703 -3.67631
1 -7.7673 -19.2245 -3.6884
2 -3.92808 -19.0594 -3.71905
2 -0.0411822 -18.9768 -3.77996
1 3.69516 -18.8022 -3.77411
1 7.50844 -18.9223 -3.77226
3 11.4914 -18.9894 -3.85853
1 -15.7306 -15.5359 -3.94366
2 -11.3243 -15.3678 -3.78911
1 -7.60416 -14.9997 -3.75986
1 -3.94404 -15.1221 -3.79897
3 -0.111743 -14.9825 -3.72069
2 3.67626 -15.0177 -3.73754
2 7.4278 -15.1446 -3.78416
1 11.098 -15.1828 -3.69466
2 15.4131 -15.7548 -4.21679
2 -19.2042 -11.4773 -3.96112
2 -15.1624 -11.3136 -3.81558
2 -11.1908 -11.2622 -3.78431
3 -7.54829 -11.1694 -3.92461
3 -3.69614 -11.2776 -3.70279
1 0.0154411 -11.2999 -3.7484
3 3.67145 -11.3568 -3.71943
3 7.54603 -11.3381 -3.82158
2 11.2621 -11.4267 -3.80947
1 15.0224 -11.3832 -3.70129
2 19.3258 -12.1329 -4.39431
1 -18.9693 -7.50754 -3.8761
3 -15.191 -7.46924 -3.7326
3 -11.353 -7.58786 -3.78309
2 -7.56177 -7.39332 -3.85293
2 -3.76873 -7.38527 -3.75673
2 0.0311051 -7.59998 -3.85229
3 3.65805 -7.49694 -3.74626
3 7.51949 -7.51758 -3.77422
3 11.3059 -7.52647 -3.72887
1 15.0289 -7.63971 -3.74335
1 18.733 -7.88633 -3.98241
1 -22.7334 -3.70849 -3.9553
2 -19.0663 -3.75262 -3.92069
1 -15.0059 -3.68957 -3.74044
1 -11.2197 -3.73695 -3.70714
3 -7.53138 -3.64097 -3.69156
3 -3.82958 -3.76926 -3.85121
2 0.0593978 -3.71919 -3.78441
2 3.65411 -3.80971 -3.76959
3 7.44142 -3.71822 -3.78324
3 11.2759 -3.71254 -3.72892
2 15.0898 -3.7822 -3.79947
2 18.7989 -3.80154 -3.84854
1 22.2227 -4.11404 -4.5583
1 -22.8392 0.0117471 -3.79436
1 -18.9626 0.228125 -3.98625
2 -14.9315 0.0381862 -3.81882
3 -11.1763 -0.107905 -3.85142
2 -7.54393 -0.0204636 -3.62279
2 -3.7611 0.0386736 -3.76842
3 -0.0447876 -0.0789825 -3.80387
3 3.77667 -0.0180839 -3.7035
1 7.46088 -0.0678664 -3.7253
2 11.1507 -0.00948708 -3.76779
2 14.9932 -0.0184014 -3.80935
2 18.9354 0.134047 -3.80869
1 22.7258 -0.182169 -4.04749
2 -22.9397 4.03135 -4.19749
1 -18.9912 4.05732 -3.96266
2 -14.985 3.71292 -3.83502
3 -11.1534 3.7112 -3.75831
3 -7.47565 3.66964 -3.81166
3 -3.82812 3.64359 -3.69297
3 -0.0636939 3.7794 -3.70011
1 3.69287 3.67262 -3.85146
2 7.29355 3.68728 -3.70494
2 11.2119 3.80785 -3.75804
2 15.0611 3.85058 -3.91879
2 18.9091 3.98051 -3.79367
1 22.7513 4.04127 -4.01704
3 -18.8588 7.37863 -3.86869
2 -15.0489 7.51287 -3.75732
1 -11.1597 7.42784 -3.7764
3 -7.51762 7.54127 -3.66686
2 -3.86463 7.5381 -3.81059
2 0.0550373 7.42633 -3.75968
3 3.69154 7.42869 -3.80984
3 7.37323 7.52036 -3.81805
3 11.1972 7.54917 -3.79361
3 14.9972 7.64449 -3.81172
2 18.9742 7.60523 -3.91965
2 -19.5521 12.1273 -4.21246
3 -14.9449 11.4096 -3.66328
1 -11.2736 11.5067 -3.84415
1 -7.61571 11.3646 -3.65067
2 -3.75105 11.1503 -3.76619
3 -0.072844 11.2803 -3.72057
3 3.66084 11.1358 -3.80755
2 7.438 11.3532 -3.75553
2 11.065 11.204 -3.79154
1 14.9586 11.4913 -3.80869
2 18.9389 11.6284 -3.83605
2 -14.9487 15.3867 -3.71358
3 -11.1116 14.9986 -3.71025
2 -7.55571 14.9729 -3.63445
2 -3.73041 14.9572 -3.78705
2 -0.0930959 15.0214 -3.69839
2 3.57707 15.0319 -3.64281
2 7.45971 15.2743 -3.80953
2 11.1635 15.2786 -3.72401
2 15.022 15.5809 -3.85721
2 -11.5648 19.0514 -3.79344
2 -7.56806 18.8215 -3.62701
2 -3.85304 18.8043 -3.73603
2 -0.126078 18.8129 -3.75465
2 3.62502 18.9823 -3.88235
2 7.36876 19.0701 -3.87913
3 11.108 19.0905 -3.71224
2 -3.9965 22.6116 -3.74214
2 -0.153883 22.7659 -3.72425
1 3.47816 22.8107 -3.80534
2 -7.37441 -22.8835 0.27202
1 -3.33216 -23.0118 -0.381438
1 1.22936 -23.1963 0.332512
3 3.72381 -22.661 -0.034974
2 7.12637 -22.4427 -0.0244754
1 -11.7243 -19.8514 -0.390405
1 -7.84979 -19.1297 0.125684
2 -3.72051 -18.7819 0.171452
2 -0.00921025 -18.7313 -0.0605148
3 3.58 -18.7017 0.00332115
3 7.34994 -18.8986 -0.0269334
1 11.3982 -19.3004 0.138886
1 -15.4737 -15.0018 0.329118
1 -11.3274 -15.2393 -0.197021
2 -7.54664 -14.8418 0.0904943
2 -3.85554 -14.9979 0.0448099
1 9.65439e-05 -14.8454 0.0200645
3 3.75095 -14.9543 -0.0575599
3 7.47752 -15.0959 -0.119379
2 11.1915 -15.278 0.145172
2 14.9942 -15.2972 -0.0133116
2 -19.1769 -11.213 -0.0504909
2 -15.0441 -11.3582 -0.0150586
3 -11.2943 -11.3815 -0.0121871
2 -7.55817 -11.2594 0.128111
3 -3.73813 -11.2598 -0.00327746
1 0.0660629 -11.2704 -0.033422
3 3.62539 -11.3126 -0.14257
2 7.51589 -11.3866 -0.044734
1 11.3468 -11.3177 0.00368931
1 15.0038 -11.4178 0.0271899
3 18.9978 -11.5959 -0.224298
1 -22.8778 -7.29982 -0.046313
2 -19.2281 -7.54144 0.0278804
2 -14.9294 -7.38057 0.0118744
3 -11.1685 -7.48488 8.36496e-05
1 -7.68136 -7.50582 -0.0657134
1 -3.66488 -7.50949 0.0569527
3 -0.041258 -7.548 -0.0725524
2 3.77235 -7.52372 -0.0785422
2 7.34408 -7.51809 0.0298363
1 11.3039 -7.61302 -0.116027
1 15.1042 -7.59956 -0.0351502
2 19.0227 -7.68378 -0.148461
2 22.5933 -7.64589 -0.115427
2 -22.8356 -3.424 -0.42021
3 -19.0556 -3.76519 -0.0372055
1 -15.0494 -3.66066 -0.093857
3 -11.2087 -3.71374 -0.0743719
3 -7.51715 -3.73433 0.023497
3 -3.76873 -3.71717 -0.0600905
3 -0.0425321 -3.74253 -0.00246642
3 3.64825 -3.84785 -0.060303
3 7.60765 -3.87051 -0.109104
1 11.3252 -3.83302 0.0540077
1 15.0391 -3.85848 -0.0128597
3 18.9959 -3.7232 -0.182598
2 22.7141 -3.73142 -0.298183
2 -22.6703 0.0118274 -0.0141854
3 -18.8274 0.00642255 -0.140178
1 -15.0708 0.0726284 -0.142781
3 -11.2447 0.0441946 -0.0160801
3 -7.43266 0.130229 0.0407491
3 -3.81372 0.0196617 0.0534262
3 -0.0789806 0.131281 0.0463869
1 3.76108 -0.0429573 0.0311045
1 7.4969 -0.0422074 0.0328912
1 11.2434 -0.0684126 0.0610823
2 14.951 0.130577 -0.0909943
1 19.0051 0.177612 -0.197472
1 22.7654 0.0826051 -0.227161
2 -23.0693 3.74935 -0.284661
2 -19.0141 3.76197 -0.169587
1 -14.9335 3.68794 0.0996163
2 -11.0821 3.76836 -0.0513499
1 -7.46375 3.74062 -0.0232586
3 -3.70928 3.78201 -0.0779077
1 -0.051756 3.76331 0.0380749
3 3.68388 3.70061 0.0630386
3 7.46497 3.64587 -0.00573304
2 11.2203 3.7882 0.0529784
1 15.009 3.84387 -0.0437187
2 18.9504 3.92959 0.104177
2 22.7054 3.93 -0.0596725
3 -22.439 7.56131 0.0476832
2 -18.6995 7.52249 -0.0710301
2 -14.905 7.43381 -0.0114797
1 -11.1647 7.32168 -0.116249
3 -7.3581 7.4036 -0.0434439
1 -3.78724 7.439 0.0325813
3 -0.111192 7.53189 -0.0479753
3 3.71117 7.37773 0.0348358
3 7.39893 7.58607 0.0780249
1 11.2082 7.54012 -0.0548485
2 15.0733 7.62912 -0.0337023
1 19.0459 7.65711 -0.179401
1 22.6379 7.67053 -0.0479612
1 -19.0122 11.5147 0.157033
3 -15.0303 11.2944 0.000192052
2 -11.3346 11.2709 0.07619
1 -7.48246 11.1578 0.105081
3 -3.72542 11.2062 0.00974768
3 -0.0186988 11.166 0.101702
3 3.64902 11.262 -0.0820051
3 7.48492 11.3537 -0.0582614
2 11.2661 11.3067 -0.100573
3 15.1678 11.3947 -0.072499
2 18.9148 11.6577 -0.0717441
2 -15.0084 15.0312 -0.0881362
3 -11.4078 15.0856 0.0957579
3 -7.43399 15.0108 0.0760719
2 -3.78744 14.881 -0.0270382
1 -0.171751 15.0726 0.0704508
3 3.61884 15.1404 0.125373
2 7.36856 15.2239 0.0624666
3 11.2021 15.3363 -0.0135646
1 14.8493 15.3496 -0.130999
1 -12.7394 20.479 0.214932
2 -7.60953 19.0251 0.00181816
1 -3.85184 18.8712 0.0651493
3 -0.122069 18.8057 0.285759
1 3.54256 18.8531 0.139042
2 7.28411 18.9792 0.189341
3 11.0759 19.1304 0.125769
2 -7.60158 22.7889 0.183148
1 -3.91208 22.5486 0.0700529
3 -0.0628711 22.7053 0.24901
1 3.46155 22.8271 0.208014
2 7.23252 22.6929 0.399242
1 -2.86361 -23.1415 3.1483
2 0.154069 -23.2799 3.54142
2 4.01858 -23.0225 4.40188
2 -11.4326 -18.9243 4.05617
2 -7.65087 -19.0434 3.71009
2 -3.69822 -18.8267 3.64676
1 0.0540397 -18.9492 3.76889
2 3.65993 -18.9224 3.82274
3 7.37442 -18.8464 3.61829
1 11.1941 -19.7236 4.2052
1 -16.5978 -16.0485 3.78325
3 -11.3266 -14.9643 3.81883
1 -7.5262 -15.0016 3.79527
3 -3.72964 -15.027 3.82432
3 0.0428751 -15.0532 3.76195
3 3.72019 -15.0569 3.78078
2 7.56059 -15.0199 3.74139
3 11.2195 -15.1714 3.73004
2 15.2934 -15.3407 3.68299
1 -19.7038 -11.744 4.02299
3 -15.059 -11.1297 3.92007
3 -11.2665 -11.192 3.87185
1 -7.54979 -11.2623 3.80564
3 -3.74352 -11.2822 3.79546
3 0.0122351 -11.1532 3.70104
2 3.67642 -11.1666 3.71714
3 7.44116 -11.3183 3.68738
2 11.4193 -11.4657 3.81091
3 15.1705 -11.4376 3.68314
1 19.7292 -11.8648 4.02165
2 -19.1296 -7.41865 3.82032
2 -15.1088 -7.58036 3.7724
2 -11.247 -7.53257 3.69057
3 -7.36311 -7.59919 3.82892
3 -3.7063 -7.45081 3.77838
3 0.039602 -7.4075 3.81513
2 3.70146 -7.49009 3.69433
2 7.55701 -7.45025 3.71562
2 11.4045 -7.51015 3.73818
2 15.1721 -7.45927 3.63212
2 18.8797 -7.53799 3.63998
2 -23.1253 -3.68969 3.68035
2 -19.0615 -3.92924 3.63549
1 -15.0417 -3.9015 3.73862
3 -11.0845 -3.82111 3.8253
2 -7.36569 -3.77549 3.63754
3 -3.78719 -3.68816 3.78903
3 0.0606008 -3.69242 3.79964
3 3.70821 -3.73721 3.76817
3 7.51834 -3.79731 3.74877
3 11.2962 -3.81949 3.79572
3 15.2181 -3.78068 3.58204
2 19.045 -3.85979 3.63103
1 22.8952 -3.77652 3.39421
1 -22.9475 0.0777108 3.40171
2 -18.8716 -0.0477969 3.54787
3 -15.064 -0.0236924 3.77168
2 -11.233 -0.0645024 3.85147
2 -7.48134 -0.070918 3.72675
2 -3.69442 0.06553 3.72779
2 -0.129419 0.0898939 3.82094
2 3.8787 0.0162476 3.77649
3 7.5605 0.0388747 3.64077
3 11.3401 0.0193971 3.6742
3 15.1296 0.005831 3.59698
2 19.0104 -0.15374 3.66006
2 22.765 0.188154 3.57968
2 -22.6887 3.9229 3.56018
3 -18.8437 3.74729 3.70068
1 -15.0234 3.73753 3.6581
2 -11.2508 3.68312 3.70946
3 -7.40453 3.65104 3.70029
3 -3.64693 3.76289 3.80437
3 -0.129133 3.74166 3.82173
3 3.65688 3.68492 3.79021
3 7.52428 3.74334 3.67997
2 11.2468 3.70773 3.59981
3 15.0728 3.74282 3.70258
2 19.0594 4.01227 3.68459
2 22.5388 3.88137 3.79963
2 -18.8708 7.56389 3.64526
3 -15.0516 7.50038 3.80719
3 -11.1865 7.4083 3.75647
3 -7.47807 7.39993 3.70776
3 -3.7504 7.44342 3.85079
3 -0.106406 7.43232 3.81649
2 3.55718 7.53899 3.77445
3 7.35193 7.55334 3.69776
2 11.2333 7.59952 3.81352
1 15.1176 7.57014 3.74603
3 18.9687 7.72912 3.79903
2 -18.7342 11.3788 3.64096
1 -15.1339 11.317 3.58166
1 -11.2681 11.0935 3.76458
2 -7.47356 11.2214 3.84437
3 -3.76221 11.1098 3.95287
2 -0.162904 11.1679 3.8651
3 3.7297 11.3505 3.77059
2 7.3445 11.3741 3.71943
2 11.229 11.3654 3.71666
1 15.3004 11.5303 3.72997
2 19.1309 12.054 3.92629
1 -15.4061 15.4111 4.08633
2 -11.3098 15.0647 3.87606
2 -7.54195 14.9684 3.90008
3 -3.74211 14.9814 3.85906
1 -0.114566 15.1189 3.87795
2 3.68112 15.1653 3.77903
2 7.41602 15.2031 3.80234
1 11.219 15.2873 3.81687
3 14.8905 15.3891 3.80139
2 -11.3198 18.8774 3.89871
2 -7.52806 19.0455 3.96031
3 -3.93512 18.9544 3.99496
2 -0.0812534 18.9149 3.94846
2 3.54787 18.9736 4.0232
2 7.48425 18.9558 4.01758
1 11.2104 19.288 4.04558
2 -3.90693 22.859 3.99115
2 -0.16884 22.8494 3.7497
2 3.74114 22.7808 4.00931
1 -0.0799571 -22.6003 7.65038
2 -11.3364 -18.7022 7.59559
2 -7.29743 -18.8537 7.49063
2 -3.74702 -18.9905 7.54808
2 -0.0161751 -18.7709 7.62892
1 3.72061 -19.0295 7.63497
3 7.43718 -19.0111 7.56721
1 11.6364 -18.7242 7.73023
2 -15.1074 -14.8317 7.70638
2 -11.2912 -15.0504 7.57423
2 -7.46962 -15.054 7.60882
1 -3.70689 -15.0235 7.71504
2 0.162381 -15.0544 7.43229
1 3.71836 -15.0519 7.53634
2 7.56117 -15.2012 7.48737
2 11.5745 -15.3419 7.56984
2 15.4463 -14.9329 7.58723
2 -19.2485 -11.3664 8.04291
2 -15.0702 -11.2798 7.76391
3 -11.2611 -11.2649 7.61778
1 -7.40887 -11.2355 7.62616
1 -3.73056 -11.3366 7.59528
3 0.0294844 -11.2471 7.56745
3 3.82294 -11.2431 7.55128
2 7.56458 -11.2083 7.49166
2 11.4602 -11.3278 7.39863
1 15.1876 -11.3517 7.5102
1 19.3702 -11.5576 7.91149
2 -19.0379 -7.57761 7.63368
1 -15.1738 -7.70726 7.8346
2 -11.2637 -7.69992 7.67539
1 -7.32648 -7.49697 7.51486
3 -3.68591 -7.45615 7.66341
1 -0.0162447 -7.51432 7.5523
1 3.77344 -7.49279 7.50699
2 7.60004 -7.49013 7.6035
2 11.3107 -7.4228 7.48387
1 15.2563 -7.5514 7.40258
1 18.8892 -7.45291 7.45356
3 -19.185 -3.70551 7.64978
2 -15.1534 -3.89561 7.61252
1 -11.2148 -3.73187 7.62922
1 -7.49182 -3.84991 7.6026
2 -3.60682 -3.72725 7.48905
3 -0.00696067 -3.77248 7.63087
3 3.71899 -3.64358 7.48343
3 7.55257 -3.75946 7.52587
2 11.4132 -3.66404 7.53965
3 15.2654 -3.70413 7.44821
1 18.9925 -3.83988 7.37421
2 -22.8028 0.0206483 7.15512
1 -18.8998 0.226869 7.62486
1 -15.1644 0.0774871 7.6107
3 -11.3516 -0.0105424 7.61804
2 -7.34797 -0.0809515 7.47426
1 -3.71573 -0.0546172 7.57833
3 -0.0763193 0.0843642 7.53472
2 3.78421 -0.0615581 7.56815
3 7.50676 -0.0903144 7.37655
3 11.2994 0.0828352 7.53974
3 15.2049 0.121615 7.40381
3 19.0769 0.131852 7.42057
2 22.7506 -0.435724 7.21977
2 -18.9916 3.88283 7.66479
2 -15.0062 3.81658 7.55274
3 -11.3326 3.8092 7.52197
1 -7.46843 3.65592 7.53054
1 -3.66254 3.73244 7.53623
2 0.0440782 3.78696 7.52119
2 3.85746 3.71576 7.4109
3 7.62592 3.70242 7.60408
1 11.1997 3.84075 7.58107
1 15.2222 3.81791 7.44348
1 19.1994 3.84615 7.20084
3 -18.8617 7.65944 7.7324
1 -15.1417 7.5211 7.53036
2 -11.2372 7.4247 7.57122
2 -7.56061 7.44744 7.62882
3 -3.84644 7.42701 7.46346
3 -0.0111845 7.44366 7.4974
1 3.68509 7.48784 7.59392
1 7.50397 7.53344 7.54703
2 11.1614 7.60996 7.46117
2 15.163 7.7046 7.46475
2 18.8507 7.96126 7.34087
2 -18.8186 11.2778 7.69153
2 -15.2199 11.2817 7.45746
1 -11.3281 11.292 7.65883
2 -7.47276 11.2256 7.6337
2 -3.74721 11.1376 7.57413
3 -0.0780695 11.1275 7.45698
3 3.62542 11.268 7.58851
2 7.4737 11.3082 7.54728
2 11.0978 11.3856 7.59641
3 15.2009 11.5874 7.46378
2 19.0738 11.422 8.30267
3 -14.9515 14.8185 7.73947
2 -11.3278 15.1019 7.58416
1 -7.72654 15.1272 7.91981
2 -3.79968 14.9736 7.64051
2 -0.112264 15.1443 7.84148
3 3.75134 15.1098 7.60233
1 7.36508 15.1589 7.6556
2 11.0631 15.1822 7.55347
2 15.2737 15.1439 7.57964
3 -11.3651 18.6882 7.7633
1 -7.2337 18.5721 7.98198
1 -3.81286 19.1314 7.83042
1 -0.035352 19.0361 7.78768
1 3.90205 18.9825 7.69585
2 7.4074 18.947 7.64575
1 11.4106 18.8535 7.63425
1 0.0282771 22.5829 7.70659
1 -7.70168 -18.6714 11.4449
2 -4.04783 -19.352 11.8723
2 0.301212 -19.3388 11.7126
3 3.79781 -18.8231 11.3807
1 8.30392 -18.7274 11.801
1 -11.5069 -15.1636 11.8218
2 -7.45877 -14.9806 11.5525
2 -3.814 -15.0235 11.4929
1 -0.0470679 -15.032 11.2222
3 3.79899 -15.0342 11.2568
2 7.59346 -15.2464 11.6146
2 11.7111 -14.8312 11.4315
1 -15.2674 -11.4705 11.7794
2 -11.4126 -11.348 11.3645
1 -7.46875 -11.0675 11.4367
3 -3.77895 -11.2263 11.42
2 0.252776 -11.1367 11.4465
2 3.90577 -11.2324 11.2816
2 7.49227 -11.3155 11.2836
2 11.4695 -11.2531 11.189
2 15.3877 -11.4712 11.5244
2 -18.8487 -7.57926 11.4309
2 -15.3572 -7.50471 11.4406
3 -11.3404 -7.49315 11.5279
1 -7.5025 -7.41232 11.4128
2 -3.65783 -7.37153 11.2509
1 0.231593 -7.43224 11.2414
3 3.81391 -7.35816 11.3202
3 7.58861 -7.52826 11.3353
1 11.3573 -7.61305 11.2683
2 15.1512 -7.5368 11.2013
3 19.082 -7.66736 11.1743
2 -19.1788 -3.93849 11.9174
2 -15.087 -3.67128 11.4784
3 -11.3209 -3.78868 11.3769
2 -7.33967 -3.7282 11.2999
2 -3.56118 -3.74384 11.3411
3 -0.0065579 -3.84342 11.2551
3 3.83014 -3.53955 11.2643
3 7.45912 -3.71431 11.316
2 11.393 -3.7464 11.2495
2 15.3247 -3.74697 11.2948
3 19.0412 -3.83593 11.2495
1 -20.4354 0.098392 13.0065
3 -15.1964 -0.0129922 11.345
3 -11.2928 0.0290455 11.3055
2 -7.32061 -0.067734 11.4231
3 -3.77349 -0.0870955 11.2716
2 0.0179917 -0.0645602 11.3422
3 3.79144 0.125507 11.1911
1 7.53922 0.0303922 11.2115
2 11.3597 0.177255 11.1884
1 15.2548 0.141439 11.2306
3 19.0928 0.21146 11.1595
2 -19.1938 3.87161 11.5207
2 -14.993 3.96699 11.4418
3 -11.2877 3.70134 11.3194
2 -7.48238 3.71699 11.274
3 -3.63258 3.76146 11.2937
3 0.00495554 3.70812 11.3458
2 3.70637 3.75564 11.3758
3 7.51865 3.76231 11.3586
2 11.2872 3.78266 11.1412
1 15.3418 3.88065 11.3881
2 19.2343 4.01471 11.4103
2 -19.0395 7.50724 11.4729
2 -15.1036 7.51072 11.3834
1 -11.3105 7.52421 11.483
3 -7.60905 7.46986 11.3395
3 -3.87264 7.41926 11.2587
3 -0.0969505 7.5312 11.5004
2 3.66705 7.54286 11.3439
3 7.56149 7.5127 11.2906
2 11.3033 7.593 11.2008
2 15.2599 7.55111 11.2505
1 19.4396 7.76505 11.4978
1 -15.1087 11.2668 11.4255
2 -11.3883 11.2656 11.4299
2 -7.57235 11.2887 11.5229
1 -3.82969 11.2478 11.4092
3 -0.22256 11.237 11.5228
1 3.65269 11.2275 11.4381
3 7.41857 11.3601 11.3684
3 11.2148 11.3295 11.0944
1 15.4353 12.0567 11.7975
1 -11.8486 15.3224 11.7388
2 -7.79289 15.092 11.8101
2 -3.78639 15.1644 11.7865
2 -0.2004 15.1208 11.5363
3 3.78107 15.1677 11.6646
2 7.53632 15.1287 11.4169
1 11.5432 15.209 11.3659
2 -8.0484 18.8758 11.6275
2 -3.91587 19.0089 11.9815
3 -0.116158 18.9517 11.6288
2 3.97403 19.264 11.9036
2 7.71935 18.8326 11.6077
2 -7.60937 -14.9349 15.2138
1 -3.91061 -15.5616 15.4608
3 0.129228 -15.1252 15.1926
2 4.02087 -15.1593 15.4258
2 8.34074 -15.0733 15.3902
1 -11.5155 -11.5207 15.4464
3 -7.60116 -11.2248 15.1873
3 -3.71372 -11.372 15.188
1 0.053087 -11.1892 15.2405
2 3.84199 -11.1218 15.1942
1 7.60027 -11.2249 15.1499
2 11.6561 -11.2284 15.2682
2 -15.1863 -7.96101 15.2045
2 -11.4315 -7.49538 15.2127
2 -7.55258 -7.49374 15.2365
3 -3.78559 -7.51855 15.2987
2 0.0999642 -7.58746 15.2972
1 3.95372 -7.46825 15.1382
3 7.72908 -7.59954 15.2471
2 11.4097 -7.52409 14.973
1 15.7196 -8.05169 15.2423
2 -15.2148 -3.73944 15.4522
3 -11.294 -3.84157 15.1779
3 -7.56331 -3.65179 15.1503
1 -3.71179 -3.55691 15.0554
1 0.146504 -3.68911 15.1239
3 3.78269 -3.78926 15.0884
3 7.65786 -3.7584 15.0343
2 11.4312 -3.68573 15.0101
1 15.8912 -3.8492 15.4011
2 -15.1325 -0.0896195 15.1605
2 -11.4827 0.0821834 15.1194
3 -7.50241 -0.0335325 15.2105
3 -3.65268 -0.0126073 15.1518
3 -0.0220944 0.133944 14.9534
1 3.8996 0.0253438 14.9798
3 7.52881 0.103883 15.0147
2 11.5075 0.130175 14.9524
3 15.3235 0.317396 15.2959
3 -15.2158 3.68682 15.1247
2 -11.4615 3.6109 15.2737
2 -7.50073 3.59002 15.1417
2 -3.73469 3.6533 14.9513
2 -0.0374454 3.72418 15.0558
3 3.84978 3.75527 14.9723
1 7.60354 3.83648 14.993
2 11.2333 3.72851 15.0702
2 15.741 3.99285 15.2333
2 -15.336 7.61423 15.2091
2 -11.3065 7.58669 15.2737
3 -7.56958 7.42303 15.1725
3 -3.7432 7.35981 15.1773
2 -0.166457 7.48203 15.2128
3 3.73699 7.54478 15.0771
2 7.64123 7.53699 15.1212
1 11.3509 7.47665 15.0615
2 15.5204 8.03081 14.9218
2 -11.9842 11.8227 15.5171
2 -7.6492 11.157 15.1555
1 -3.85414 11.232 15.3025
1 -0.115183 11.2 15.3094
2 3.67441 11.3849 15.2692
2 7.41717 11.2777 15.0027
2 11.4081 11.376 14.9974
1 -8.25849 15.4101 15.5205
2 -4.20065 16.5997 16.6883
1 -0.420085 15.143 14.8554
1 3.91482 15.3487 15.8123
2 7.98181 15.1801 15.4231
1 -7.46698 -11.2315 19.0867
3 -3.75474 -11.3189 18.9261
2 0.097547 -11.1839 19.0398
1 4.00482 -11.5866 19.1277
2 8.37073 -11.4097 19.0364
2 -11.2797 -7.42608 18.9508
2 -7.50968 -7.35359 18.8874
3 -3.63242 -7.59256 19.1679
1 0.266978 -7.45272 18.9346
2 4.13928 -7.78402 19.0401
2 6.88368 -7.67366 19.6213
1 11.7771 -7.47329 18.7132
2 -11.4794 -3.97573 19.0886
3 -7.65814 -3.79683 18.95
1 -3.78559 -3.59277 18.9213
1 0.328103 -4.02548 19.1204
1 3.95969 -3.69068 18.8997
2 7.74246 -3.67208 18.7308
3 11.911 -3.55017 18.5785
1 -11.8166 0.0608499 19.5181
1 -7.80139 -0.0878689 19.0087
1 -3.7199 -0.0214927 19.0009
2 0.071139 -0.0921479 18.8889
3 3.89269 0.0246602 18.9773
2 7.61601 0.0244997 18.729
2 11.5595 0.30336 18.904
1 -11.9043 4.146 19.1928
1 -7.73603 3.7338 19.0868
2 -3.75048 3.6992 19.001
1 0.214433 3.78117 18.8774
2 3.7406 3.81592 18.9451
3 7.69529 3.82085 19.0701
2 11.7723 5.02823 19.7701
2 -11.6419 7.49087 18.7962
3 -7.60512 7.53562 19.1023
1 -3.95929 7.38207 18.978
2 0.0194605 7.45654 18.9297
1 3.6054 7.56138 18.9748
1 7.64077 7.34431 18.9458
2 11.586 7.66916 18.6831
2 -7.72581 11.3774 18.8597
2 -3.89865 11.4957 19.0315
1 0.0053305 11.4082 19.07
1 3.85142 11.3507 18.9097
2 7.83672 11.2102 18.7242
2 -0.17082 -7.66128 22.7003
2 -3.66661 -3.78865 22.9181
2 0.629647 -3.56171 23.1841
2 3.87233 -4.73058 22.6755
2 -7.62572 -0.0421608 22.6955
2 -3.47377 0.00571465 22.949
2 0.846329 -0.74731 23.076
2 3.51895 0.120947 23.459
2 7.53932 0.184334 22.6552
2 -3.95285 3.85849 23.1265
1 0.0453172 3.82321 22.7803
2 4.07209 3.69633 22.714
1 -0.042864 6.62984 22.7775
2 -5.4601 -5.76695 -22.9819
2 -1.6635 -5.96205 -22.8106
1 1.93251 -5.87405 -22.6954
1 5.81616 -5.87668 -22.3595
1 -5.18397 -1.89704 -23.0851
2 -1.80621 -2.18748 -23.0983
2 1.89197 -2.31861 -22.8028
2 5.98099 -1.95218 -22.5269
2 -5.57578 1.64183 -22.8106
2 -1.74961 1.9971 -22.8665
1 2.20521 1.87499 -22.7111
2 5.81877 1.8273 -22.6853
2 -5.33422 5.53273 -22.7374
2 -1.57772 5.57117 -22.7714
1 2.13144 5.78474 -22.7144
1 6.15729 5.6446 -22.6484
1 -5.98062 -13.2397 -18.7853
3 -1.53187 -13.4563 -18.7901
1 2.28377 -13.3654 -18.7382
1 6.16314 -13.4098 -18.3577
2 -9.6596 -9.79997 -18.9893
1 -5.55668 -9.87276 -19.3534
1 -1.94358 -9.71449 -19.0808
3 1.83417 -9.44653 -18.902
2 6.21563 -9.86479 -19.0453
2 9.80601 -9.75257 -18.4018
2 -13.3144 -5.99935 -18.7658
2 -9.50384 -5.72666 -19.0861
2 -5.91686 -5.81865 -19.1934
1 -1.90981 -5.60658 -18.946
2 1.90708 -5.72661 -18.8005
1 5.73669 -5.79922 -19.0435