LAMMPS DATA FOR MEAM SIMULATION

   4388   atoms
      2   atom types

  -33.59   33.59   xlo xhi
  -33.59   33.59   ylo yhi
  -33.59   33.59   zlo zhi

 Atoms

     1   2    -5.89727    -9.82878   -21.62333
     2   2    -1.96576    -9.82878   -21.62333
     3   2     1.96576    -9.82878   -21.62333
     4   2     5.89727    -9.82878   -21.62333
     5   2    -9.82878    -5.89727   -21.62333
     6   2    -5.89727    -5.89727   -21.62333
     7   2    -1.96576    -5.89727   -21.62333
     8   2     1.96576    -5.89727   -21.62333
     9   2     5.89727    -5.89727   -21.62333
    10   2     9.82878    -5.89727   -21.62333
    11   2    -9.82878    -1.96576   -21.62333
    12   2    -5.89727    -1.96576   -21.62333
    13   2    -1.96576    -1.96576   -21.62333
    14   2     1.96576    -1.96576   -21.62333
    15   2     5.89727    -1.96576   -21.62333
    16   2     9.82878    -1.96576   -21.62333
    17   2    -9.82878     1.96576   -21.62333
    18   2    -5.89727     1.96576   -21.62333
    19   2    -1.96576     1.96576   -21.62333
    20   2     1.96576     1.96576   -21.62333
    21   2     5.89727     1.96576   -21.62333
    22   2     9.82878     1.96576   -21.62333
    23   2    -9.82878     5.89727   -21.62333
    24   2    -5.89727     5.89727   -21.62333
    25   2    -1.96576     5.89727   -21.62333
    26   2     1.96576     5.89727   -21.62333
    27   2     5.89727     5.89727   -21.62333
    28   2     9.82878     5.89727   -21.62333
    29   2    -5.89727     9.82878   -21.62333
    30   2    -1.96576     9.82878   -21.62333
    31   2     1.96576     9.82878   -21.62333
    32   2     5.89727     9.82878   -21.62333
    33   2    -9.82878   -13.76030   -17.69181
    34   2    -5.89727   -13.76030   -17.69181
    35   2    -1.96576   -13.76030   -17.69181
    36   2     1.96576   -13.76030   -17.69181
    37   2     5.89727   -13.76030   -17.69181
    38   2     9.82878   -13.76030   -17.69181
    39   2   -13.76030    -9.82878   -17.69181
    40   2    -9.82878    -9.82878   -17.69181
    41   2    -5.89727    -9.82878   -17.69181
    42   2    -1.96576    -9.82878   -17.69181
    43   2     1.96576    -9.82878   -17.69181
    44   2     5.89727    -9.82878   -17.69181
    45   2     9.82878    -9.82878   -17.69181
    46   2    13.76030    -9.82878   -17.69181
    47   2   -13.76030    -5.89727   -17.69181
    48   2    -9.82878    -5.89727   -17.69181
    49   2    -5.89727    -5.89727   -17.69181
    50   2    -1.96576    -5.89727   -17.69181
    51   2     1.96576    -5.89727   -17.69181
    52   2     5.89727    -5.89727   -17.69181
    53   2     9.82878    -5.89727   -17.69181
    54   2    13.76030    -5.89727   -17.69181
    55   2   -13.76030    -1.96576   -17.69181
    56   2    -9.82878    -1.96576   -17.69181
    57   2    -5.89727    -1.96576   -17.69181
    58   2    -1.96576    -1.96576   -17.69181
    59   2     1.96576    -1.96576   -17.69181
    60   2     5.89727    -1.96576   -17.69181
    61   2     9.82878    -1.96576   -17.69181
    62   2    13.76030    -1.96576   -17.69181
    63   2   -13.76030     1.96576   -17.69181
    64   2    -9.82878     1.96576   -17.69181
    65   2    -5.89727     1.96576   -17.69181
    66   2    -1.96576     1.96576   -17.69181
    67   2     1.96576     1.96576   -17.69181
    68   2     5.89727     1.96576   -17.69181
    69   2     9.82878     1.96576   -17.69181
    70   2    13.76030     1.96576   -17.69181
    71   2   -13.76030     5.89727   -17.69181
    72   2    -9.82878     5.89727   -17.69181
    73   2    -5.89727     5.89727   -17.69181
    74   2    -1.96576     5.89727   -17.69181
    75   2     1.96576     5.89727   -17.69181
    76   2     5.89727     5.89727   -17.69181
    77   2     9.82878     5.89727   -17.69181
    78   2    13.76030     5.89727   -17.69181
    79   2   -13.76030     9.82878   -17.69181
    80   2    -9.82878     9.82878   -17.69181
    81   2    -5.89727     9.82878   -17.69181
    82   2    -1.96576     9.82878   -17.69181
    83   2     1.96576     9.82878   -17.69181
    84   2     5.89727     9.82878   -17.69181
    85   2     9.82878     9.82878   -17.69181
    86   2    13.76030     9.82878   -17.69181
    87   2    -9.82878    13.76030   -17.69181
    88   2    -5.89727    13.76030   -17.69181
    89   2    -1.96576    13.76030   -17.69181
    90   2     1.96576    13.76030   -17.69181
    91   2     5.89727    13.76030   -17.69181
    92   2     9.82878    13.76030   -17.69181
    93   2    -9.82878   -17.69181   -13.76030
    94   2    -5.89727   -17.69181   -13.76030
    95   2    -1.96576   -17.69181   -13.76030
    96   2     1.96576   -17.69181   -13.76030
    97   2     5.89727   -17.69181   -13.76030
    98   2     9.82878   -17.69181   -13.76030
    99   2   -13.76030   -13.76030   -13.76030
   100   2    -9.82878   -13.76030   -13.76030
   101   2    -5.89727   -13.76030   -13.76030
   102   2    -1.96576   -13.76030   -13.76030
   103   2     1.96576   -13.76030   -13.76030
   104   2     5.89727   -13.76030   -13.76030
   105   2     9.82878   -13.76030   -13.76030
   106   2    13.76030   -13.76030   -13.76030
   107   2   -17.69181    -9.82878   -13.76030
   108   2   -13.76030    -9.82878   -13.76030
   109   2    -9.82878    -9.82878   -13.76030
   110   2    -5.89727    -9.82878   -13.76030
   111   2    -1.96576    -9.82878   -13.76030
   112   2     1.96576    -9.82878   -13.76030
   113   2     5.89727    -9.82878   -13.76030
   114   2     9.82878    -9.82878   -13.76030
   115   2    13.76030    -9.82878   -13.76030
   116   2    17.69181    -9.82878   -13.76030
   117   2   -17.69181    -5.89727   -13.76030
   118   2   -13.76030    -5.89727   -13.76030
   119   2    -9.82878    -5.89727   -13.76030
   120   2    -5.89727    -5.89727   -13.76030
   121   2    -1.96576    -5.89727   -13.76030
   122   2     1.96576    -5.89727   -13.76030
   123   2     5.89727    -5.89727   -13.76030
   124   2     9.82878    -5.89727   -13.76030
   125   2    13.76030    -5.89727   -13.76030
   126   2    17.69181    -5.89727   -13.76030
   127   2   -17.69181    -1.96576   -13.76030
   128   2   -13.76030    -1.96576   -13.76030
   129   2    -9.82878    -1.96576   -13.76030
   130   2    -5.89727    -1.96576   -13.76030
   131   2    -1.96576    -1.96576   -13.76030
   132   2     1.96576    -1.96576   -13.76030
   133   2     5.89727    -1.96576   -13.76030
   134   2     9.82878    -1.96576   -13.76030
   135   2    13.76030    -1.96576   -13.76030
   136   2    17.69181    -1.96576   -13.76030
   137   2   -17.69181     1.96576   -13.76030
   138   2   -13.76030     1.96576   -13.76030
   139   2    -9.82878     1.96576   -13.76030
   140   2    -5.89727     1.96576   -13.76030
   141   2    -1.96576     1.96576   -13.76030
   142   2     1.96576     1.96576   -13.76030
   143   2     5.89727     1.96576   -13.76030
   144   2     9.82878     1.96576   -13.76030
   145   2    13.76030     1.96576   -13.76030
   146   2    17.69181     1.96576   -13.76030
   147   2   -17.69181     5.89727   -13.76030
   148   2   -13.76030     5.89727   -13.76030
   149   2    -9.82878     5.89727   -13.76030
   150   2    -5.89727     5.89727   -13.76030
   151   2    -1.96576     5.89727   -13.76030
   152   2     1.96576     5.89727   -13.76030
   153   2     5.89727     5.89727   -13.76030
   154   2     9.82878     5.89727   -13.76030
   155   2    13.76030     5.89727   -13.76030
   156   2    17.69181     5.89727   -13.76030
   157   2   -17.69181     9.82878   -13.76030
   158   2   -13.76030     9.82878   -13.76030
   159   2    -9.82878     9.82878   -13.76030
   160   2    -5.89727     9.82878   -13.76030
   161   2    -1.96576     9.82878   -13.76030
   162   2     1.96576     9.82878   -13.76030
   163   2     5.89727     9.82878   -13.76030
   164   2     9.82878     9.82878   -13.76030
   165   2    13.76030     9.82878   -13.76030
   166   2    17.69181     9.82878   -13.76030
   167   2   -13.76030    13.76030   -13.76030
   168   2    -9.82878    13.76030   -13.76030
   169   2    -5.89727    13.76030   -13.76030
   170   2    -1.96576    13.76030   -13.76030
   171   2     1.96576    13.76030   -13.76030
   172   2     5.89727    13.76030   -13.76030
   173   2     9.82878    13.76030   -13.76030
   174   2    13.76030    13.76030   -13.76030
   175   2    -9.82878    17.69181   -13.76030
   176   2    -5.89727    17.69181   -13.76030
   177   2    -1.96576    17.69181   -13.76030
   178   2     1.96576    17.69181   -13.76030
   179   2     5.89727    17.69181   -13.76030
   180   2     9.82878    17.69181   -13.76030
   181   2    -5.89727   -21.62333    -9.82878
   182   2    -1.96576   -21.62333    -9.82878
   183   2     1.96576   -21.62333    -9.82878
   184   2     5.89727   -21.62333    -9.82878
   185   2   -13.76030   -17.69181    -9.82878
   186   2    -9.82878   -17.69181    -9.82878
   187   2    -5.89727   -17.69181    -9.82878
   188   2    -1.96576   -17.69181    -9.82878
   189   2     1.96576   -17.69181    -9.82878
   190   2     5.89727   -17.69181    -9.82878
   191   2     9.82878   -17.69181    -9.82878
   192   2    13.76030   -17.69181    -9.82878
   193   2   -17.69181   -13.76030    -9.82878
   194   2   -13.76030   -13.76030    -9.82878
   195   2    -9.82878   -13.76030    -9.82878
   196   2    -5.89727   -13.76030    -9.82878
   197   2    -1.96576   -13.76030    -9.82878
   198   2     1.96576   -13.76030    -9.82878
   199   2     5.89727   -13.76030    -9.82878
   200   2     9.82878   -13.76030    -9.82878
   201   2    13.76030   -13.76030    -9.82878
   202   2    17.69181   -13.76030    -9.82878
   203   2   -17.69181    -9.82878    -9.82878
   204   2   -13.76030    -9.82878    -9.82878
   205   2    -9.82878    -9.82878    -9.82878
   206   2    -5.89727    -9.82878    -9.82878
   207   2    -1.96576    -9.82878    -9.82878
   208   2     1.96576    -9.82878    -9.82878
   209   2     5.89727    -9.82878    -9.82878
   210   2     9.82878    -9.82878    -9.82878
   211   2    13.76030    -9.82878    -9.82878
   212   2    17.69181    -9.82878    -9.82878
   213   2   -21.62333    -5.89727    -9.82878
   214   2   -17.69181    -5.89727    -9.82878
   215   2   -13.76030    -5.89727    -9.82878
   216   2    -9.82878    -5.89727    -9.82878
   217   2    -5.89727    -5.89727    -9.82878
   218   2    -1.96576    -5.89727    -9.82878
   219   2     1.96576    -5.89727    -9.82878
   220   2     5.89727    -5.89727    -9.82878
   221   2     9.82878    -5.89727    -9.82878
   222   2    13.76030    -5.89727    -9.82878
   223   2    17.69181    -5.89727    -9.82878
   224   2    21.62333    -5.89727    -9.82878
   225   2   -21.62333    -1.96576    -9.82878
   226   2   -17.69181    -1.96576    -9.82878
   227   2   -13.76030    -1.96576    -9.82878
   228   2    -9.82878    -1.96576    -9.82878
   229   2    -5.89727    -1.96576    -9.82878
   230   2    -1.96576    -1.96576    -9.82878
   231   2     1.96576    -1.96576    -9.82878
   232   2     5.89727    -1.96576    -9.82878
   233   2     9.82878    -1.96576    -9.82878
   234   2    13.76030    -1.96576    -9.82878
   235   2    17.69181    -1.96576    -9.82878
   236   2    21.62333    -1.96576    -9.82878
   237   2   -21.62333     1.96576    -9.82878
   238   2   -17.69181     1.96576    -9.82878
   239   2   -13.76030     1.96576    -9.82878
   240   2    -9.82878     1.96576    -9.82878
   241   2    -5.89727     1.96576    -9.82878
   242   2    -1.96576     1.96576    -9.82878
   243   2     1.96576     1.96576    -9.82878
   244   2     5.89727     1.96576    -9.82878
   245   2     9.82878     1.96576    -9.82878
   246   2    13.76030     1.96576    -9.82878
   247   2    17.69181     1.96576    -9.82878
   248   2    21.62333     1.96576    -9.82878
   249   2   -21.62333     5.89727    -9.82878
   250   2   -17.69181     5.89727    -9.82878
   251   2   -13.76030     5.89727    -9.82878
   252   2    -9.82878     5.89727    -9.82878
   253   2    -5.89727     5.89727    -9.82878
   254   2    -1.96576     5.89727    -9.82878
   255   2     1.96576     5.89727    -9.82878
   256   2     5.89727     5.89727    -9.82878
   257   2     9.82878     5.89727    -9.82878
   258   2    13.76030     5.89727    -9.82878
   259   2    17.69181     5.89727    -9.82878
   260   2    21.62333     5.89727    -9.82878
   261   2   -17.69181     9.82878    -9.82878
   262   2   -13.76030     9.82878    -9.82878
   263   2    -9.82878     9.82878    -9.82878
   264   2    -5.89727     9.82878    -9.82878
   265   2    -1.96576     9.82878    -9.82878
   266   2     1.96576     9.82878    -9.82878
   267   2     5.89727     9.82878    -9.82878
   268   2     9.82878     9.82878    -9.82878
   269   2    13.76030     9.82878    -9.82878
   270   2    17.69181     9.82878    -9.82878
   271   2   -17.69181    13.76030    -9.82878
   272   2   -13.76030    13.76030    -9.82878
   273   2    -9.82878    13.76030    -9.82878
   274   2    -5.89727    13.76030    -9.82878
   275   2    -1.96576    13.76030    -9.82878
   276   2     1.96576    13.76030    -9.82878
   277   2     5.89727    13.76030    -9.82878
   278   2     9.82878    13.76030    -9.82878
   279   2    13.76030    13.76030    -9.82878
   280   2    17.69181    13.76030    -9.82878
   281   2   -13.76030    17.69181    -9.82878
   282   2    -9.82878    17.69181    -9.82878
   283   2    -5.89727    17.69181    -9.82878
   284   2    -1.96576    17.69181    -9.82878
   285   2     1.96576    17.69181    -9.82878
   286   2     5.89727    17.69181    -9.82878
   287   2     9.82878    17.69181    -9.82878
   288   2    13.76030    17.69181    -9.82878
   289   2    -5.89727    21.62333    -9.82878
   290   2    -1.96576    21.62333    -9.82878
   291   2     1.96576    21.62333    -9.82878
   292   2     5.89727    21.62333    -9.82878
   293   2    -9.82878   -21.62333    -5.89727
   294   2    -5.89727   -21.62333    -5.89727
   295   2    -1.96576   -21.62333    -5.89727
   296   2     1.96576   -21.62333    -5.89727
   297   2     5.89727   -21.62333    -5.89727
   298   2     9.82878   -21.62333    -5.89727
   299   2   -13.76030   -17.69181    -5.89727
   300   2    -9.82878   -17.69181    -5.89727
   301   2    -5.89727   -17.69181    -5.89727
   302   2    -1.96576   -17.69181    -5.89727
   303   2     1.96576   -17.69181    -5.89727
   304   2     5.89727   -17.69181    -5.89727
   305   2     9.82878   -17.69181    -5.89727
   306   2    13.76030   -17.69181    -5.89727
   307   2   -17.69181   -13.76030    -5.89727
   308   2   -13.76030   -13.76030    -5.89727
   309   2    -9.82878   -13.76030    -5.89727
   310   2    -5.89727   -13.76030    -5.89727
   311   2    -1.96576   -13.76030    -5.89727
   312   2     1.96576   -13.76030    -5.89727
   313   2     5.89727   -13.76030    -5.89727
   314   2     9.82878   -13.76030    -5.89727
   315   2    13.76030   -13.76030    -5.89727
   316   2    17.69181   -13.76030    -5.89727
   317   2   -21.62333    -9.82878    -5.89727
   318   2   -17.69181    -9.82878    -5.89727
   319   2   -13.76030    -9.82878    -5.89727
   320   2    -9.82878    -9.82878    -5.89727
   321   2    -5.89727    -9.82878    -5.89727
   322   2    -1.96576    -9.82878    -5.89727
   323   2     1.96576    -9.82878    -5.89727
   324   2     5.89727    -9.82878    -5.89727
   325   2     9.82878    -9.82878    -5.89727
   326   2    13.76030    -9.82878    -5.89727
   327   2    17.69181    -9.82878    -5.89727
   328   2    21.62333    -9.82878    -5.89727
   329   2   -21.62333    -5.89727    -5.89727
   330   2   -17.69181    -5.89727    -5.89727
   331   2   -13.76030    -5.89727    -5.89727
   332   2    -9.82878    -5.89727    -5.89727
   333   2    -5.89727    -5.89727    -5.89727
   334   2    -1.96576    -5.89727    -5.89727
   335   2     1.96576    -5.89727    -5.89727
   336   2     5.89727    -5.89727    -5.89727
   337   2     9.82878    -5.89727    -5.89727
   338   2    13.76030    -5.89727    -5.89727
   339   2    17.69181    -5.89727    -5.89727
   340   2    21.62333    -5.89727    -5.89727
   341   2   -21.62333    -1.96576    -5.89727
   342   2   -17.69181    -1.96576    -5.89727
   343   2   -13.76030    -1.96576    -5.89727
   344   2    -9.82878    -1.96576    -5.89727
   345   2    -5.89727    -1.96576    -5.89727
   346   2    -1.96576    -1.96576    -5.89727
   347   2     1.96576    -1.96576    -5.89727
   348   2     5.89727    -1.96576    -5.89727
   349   2     9.82878    -1.96576    -5.89727
   350   2    13.76030    -1.96576    -5.89727
   351   2    17.69181    -1.96576    -5.89727
   352   2    21.62333    -1.96576    -5.89727
   353   2   -21.62333     1.96576    -5.89727
   354   2   -17.69181     1.96576    -5.89727
   355   2   -13.76030     1.96576    -5.89727
   356   2    -9.82878     1.96576    -5.89727
   357   2    -5.89727     1.96576    -5.89727
   358   2    -1.96576     1.96576    -5.89727
   359   2     1.96576     1.96576    -5.89727
   360   2     5.89727     1.96576    -5.89727
   361   2     9.82878     1.96576    -5.89727
   362   2    13.76030     1.96576    -5.89727
   363   2    17.69181     1.96576    -5.89727
   364   2    21.62333     1.96576    -5.89727
   365   2   -21.62333     5.89727    -5.89727
   366   2   -17.69181     5.89727    -5.89727
   367   2   -13.76030     5.89727    -5.89727
   368   2    -9.82878     5.89727    -5.89727
   369   2    -5.89727     5.89727    -5.89727
   370   2    -1.96576     5.89727    -5.89727
   371   2     1.96576     5.89727    -5.89727
   372   2     5.89727     5.89727    -5.89727
   373   2     9.82878     5.89727    -5.89727
   374   2    13.76030     5.89727    -5.89727
   375   2    17.69181     5.89727    -5.89727
   376   2    21.62333     5.89727    -5.89727
   377   2   -21.62333     9.82878    -5.89727
   378   2   -17.69181     9.82878    -5.89727
   379   2   -13.76030     9.82878    -5.89727
   380   2    -9.82878     9.82878    -5.89727
   381   2    -5.89727     9.82878    -5.89727
   382   2    -1.96576     9.82878    -5.89727
   383   2     1.96576     9.82878    -5.89727
   384   2     5.89727     9.82878    -5.89727
   385   2     9.82878     9.82878    -5.89727
   386   2    13.76030     9.82878    -5.89727
   387   2    17.69181     9.82878    -5.89727
   388   2    21.62333     9.82878    -5.89727
   389   2   -17.69181    13.76030    -5.89727
   390   2   -13.76030    13.76030    -5.89727
   391   2    -9.82878    13.76030    -5.89727
   392   2    -5.89727    13.76030    -5.89727
   393   2    -1.96576    13.76030    -5.89727
   394   2     1.96576    13.76030    -5.89727
   395   2     5.89727    13.76030    -5.89727
   396   2     9.82878    13.76030    -5.89727
   397   2    13.76030    13.76030    -5.89727
   398   2    17.69181    13.76030    -5.89727
   399   2   -13.76030    17.69181    -5.89727
   400   2    -9.82878    17.69181    -5.89727
   401   2    -5.89727    17.69181    -5.89727
   402   2    -1.96576    17.69181    -5.89727
   403   2     1.96576    17.69181    -5.89727
   404   2     5.89727    17.69181    -5.89727
   405   2     9.82878    17.69181    -5.89727
   406   2    13.76030    17.69181    -5.89727
   407   2    -9.82878    21.62333    -5.89727
   408   2    -5.89727    21.62333    -5.89727
   409   2    -1.96576    21.62333    -5.89727
   410   2     1.96576    21.62333    -5.89727
   411   2     5.89727    21.62333    -5.89727
   412   2     9.82878    21.62333    -5.89727
   413   2    -9.82878   -21.62333    -1.96576
   414   2    -5.89727   -21.62333    -1.96576
   415   2    -1.96576   -21.62333    -1.96576
   416   2     1.96576   -21.62333    -1.96576
   417   2     5.89727   -21.62333    -1.96576
   418   2     9.82878   -21.62333    -1.96576
   419   2   -13.76030   -17.69181    -1.96576
   420   2    -9.82878   -17.69181    -1.96576
   421   2    -5.89727   -17.69181    -1.96576
   422   2    -1.96576   -17.69181    -1.96576
   423   2     1.96576   -17.69181    -1.96576
   424   2     5.89727   -17.69181    -1.96576
   425   2     9.82878   -17.69181    -1.96576
   426   2    13.76030   -17.69181    -1.96576
   427   2   -17.69181   -13.76030    -1.96576
   428   2   -13.76030   -13.76030    -1.96576
   429   2    -9.82878   -13.76030    -1.96576
   430   2    -5.89727   -13.76030    -1.96576
   431   2    -1.96576   -13.76030    -1.96576
   432   2     1.96576   -13.76030    -1.96576
   433   2     5.89727   -13.76030    -1.96576
   434   2     9.82878   -13.76030    -1.96576
   435   2    13.76030   -13.76030    -1.96576
   436   2    17.69181   -13.76030    -1.96576
   437   2   -21.62333    -9.82878    -1.96576
   438   2   -17.69181    -9.82878    -1.96576
   439   2   -13.76030    -9.82878    -1.96576
   440   2    -9.82878    -9.82878    -1.96576
   441   2    -5.89727    -9.82878    -1.96576
   442   2    -1.96576    -9.82878    -1.96576
   443   2     1.96576    -9.82878    -1.96576
   444   2     5.89727    -9.82878    -1.96576
   445   2     9.82878    -9.82878    -1.96576
   446   2    13.76030    -9.82878    -1.96576
   447   2    17.69181    -9.82878    -1.96576
   448   2    21.62333    -9.82878    -1.96576
   449   2   -21.62333    -5.89727    -1.96576
   450   2   -17.69181    -5.89727    -1.96576
   451   2   -13.76030    -5.89727    -1.96576
   452   2    -9.82878    -5.89727    -1.96576
   453   2    -5.89727    -5.89727    -1.96576
   454   2    -1.96576    -5.89727    -1.96576
   455   2     1.96576    -5.89727    -1.96576
   456   2     5.89727    -5.89727    -1.96576
   457   2     9.82878    -5.89727    -1.96576
   458   2    13.76030    -5.89727    -1.96576
   459   2    17.69181    -5.89727    -1.96576
   460   2    21.62333    -5.89727    -1.96576
   461   2   -21.62333    -1.96576    -1.96576
   462   2   -17.69181    -1.96576    -1.96576
   463   2   -13.76030    -1.96576    -1.96576
   464   2    -9.82878    -1.96576    -1.96576
   465   2    -5.89727    -1.96576    -1.96576
   466   2    -1.96576    -1.96576    -1.96576
   467   2     1.96576    -1.96576    -1.96576
   468   2     5.89727    -1.96576    -1.96576
   469   2     9.82878    -1.96576    -1.96576
   470   2    13.76030    -1.96576    -1.96576
   471   2    17.69181    -1.96576    -1.96576
   472   2    21.62333    -1.96576    -1.96576
   473   2   -21.62333     1.96576    -1.96576
   474   2   -17.69181     1.96576    -1.96576
   475   2   -13.76030     1.96576    -1.96576
   476   2    -9.82878     1.96576    -1.96576
   477   2    -5.89727     1.96576    -1.96576
   478   2    -1.96576     1.96576    -1.96576
   479   2     1.96576     1.96576    -1.96576
   480   2     5.89727     1.96576    -1.96576
   481   2     9.82878     1.96576    -1.96576
   482   2    13.76030     1.96576    -1.96576
   483   2    17.69181     1.96576    -1.96576
   484   2    21.62333     1.96576    -1.96576
   485   2   -21.62333     5.89727    -1.96576
   486   2   -17.69181     5.89727    -1.96576
   487   2   -13.76030     5.89727    -1.96576
   488   2    -9.82878     5.89727    -1.96576
   489   2    -5.89727     5.89727    -1.96576
   490   2    -1.96576     5.89727    -1.96576
   491   2     1.96576     5.89727    -1.96576
   492   2     5.89727     5.89727    -1.96576
   493   2     9.82878     5.89727    -1.96576
   494   2    13.76030     5.89727    -1.96576
   495   2    17.69181     5.89727    -1.96576
   496   2    21.62333     5.89727    -1.96576
   497   2   -21.62333     9.82878    -1.96576
   498   2   -17.69181     9.82878    -1.96576
   499   2   -13.76030     9.82878    -1.96576
   500   2    -9.82878     9.82878    -1.96576
   501   2    -5.89727     9.82878    -1.96576
   502   2    -1.96576     9.82878    -1.96576
   503   2     1.96576     9.82878    -1.96576
   504   2     5.89727     9.82878    -1.96576
   505   2     9.82878     9.82878    -1.96576
   506   2    13.76030     9.82878    -1.96576
   507   2    17.69181     9.82878    -1.96576
   508   2    21.62333     9.82878    -1.96576
   509   2   -17.69181    13.76030    -1.96576
   510   2   -13.76030    13.76030    -1.96576
   511   2    -9.82878    13.76030    -1.96576
   512   2    -5.89727    13.76030    -1.96576
   513   2    -1.96576    13.76030    -1.96576
   514   2     1.96576    13.76030    -1.96576
   515   2     5.89727    13.76030    -1.96576
   516   2     9.82878    13.76030    -1.96576
   517   2    13.76030    13.76030    -1.96576
   518   2    17.69181    13.76030    -1.96576
   519   2   -13.76030    17.69181    -1.96576
   520   2    -9.82878    17.69181    -1.96576
   521   2    -5.89727    17.69181    -1.96576
   522   2    -1.96576    17.69181    -1.96576
   523   2     1.96576    17.69181    -1.96576
   524   2     5.89727    17.69181    -1.96576
   525   2     9.82878    17.69181    -1.96576
   526   2    13.76030    17.69181    -1.96576
   527   2    -9.82878    21.62333    -1.96576
   528   2    -5.89727    21.62333    -1.96576
   529   2    -1.96576    21.62333    -1.96576
   530   2     1.96576    21.62333    -1.96576
   531   2     5.89727    21.62333    -1.96576
   532   2     9.82878    21.62333    -1.96576
   533   2    -9.82878   -21.62333     1.96576
   534   2    -5.89727   -21.62333     1.96576
   535   2    -1.96576   -21.62333     1.96576
   536   2     1.96576   -21.62333     1.96576
   537   2     5.89727   -21.62333     1.96576
   538   2     9.82878   -21.62333     1.96576
   539   2   -13.76030   -17.69181     1.96576
   540   2    -9.82878   -17.69181     1.96576
   541   2    -5.89727   -17.69181     1.96576
   542   2    -1.96576   -17.69181     1.96576
   543   2     1.96576   -17.69181     1.96576
   544   2     5.89727   -17.69181     1.96576
   545   2     9.82878   -17.69181     1.96576
   546   2    13.76030   -17.69181     1.96576
   547   2   -17.69181   -13.76030     1.96576
   548   2   -13.76030   -13.76030     1.96576
   549   2    -9.82878   -13.76030     1.96576
   550   2    -5.89727   -13.76030     1.96576
   551   2    -1.96576   -13.76030     1.96576
   552   2     1.96576   -13.76030     1.96576
   553   2     5.89727   -13.76030     1.96576
   554   2     9.82878   -13.76030     1.96576
   555   2    13.76030   -13.76030     1.96576
   556   2    17.69181   -13.76030     1.96576
   557   2   -21.62333    -9.82878     1.96576
   558   2   -17.69181    -9.82878     1.96576
   559   2   -13.76030    -9.82878     1.96576
   560   2    -9.82878    -9.82878     1.96576
   561   2    -5.89727    -9.82878     1.96576
   562   2    -1.96576    -9.82878     1.96576
   563   2     1.96576    -9.82878     1.96576
   564   2     5.89727    -9.82878     1.96576
   565   2     9.82878    -9.82878     1.96576
   566   2    13.76030    -9.82878     1.96576
   567   2    17.69181    -9.82878     1.96576
   568   2    21.62333    -9.82878     1.96576
   569   2   -21.62333    -5.89727     1.96576
   570   2   -17.69181    -5.89727     1.96576
   571   2   -13.76030    -5.89727     1.96576
   572   2    -9.82878    -5.89727     1.96576
   573   2    -5.89727    -5.89727     1.96576
   574   2    -1.96576    -5.89727     1.96576
   575   2     1.96576    -5.89727     1.96576
   576   2     5.89727    -5.89727     1.96576
   577   2     9.82878    -5.89727     1.96576
   578   2    13.76030    -5.89727     1.96576
   579   2    17.69181    -5.89727     1.96576
   580   2    21.62333    -5.89727     1.96576
   581   2   -21.62333    -1.96576     1.96576
   582   2   -17.69181    -1.96576     1.96576
   583   2   -13.76030    -1.96576     1.96576
   584   2    -9.82878    -1.96576     1.96576
   585   2    -5.89727    -1.96576     1.96576
   586   2    -1.96576    -1.96576     1.96576
   587   2     1.96576    -1.96576     1.96576
   588   2     5.89727    -1.96576     1.96576
   589   2     9.82878    -1.96576     1.96576
   590   2    13.76030    -1.96576     1.96576
   591   2    17.69181    -1.96576     1.96576
   592   2    21.62333    -1.96576     1.96576
   593   2   -21.62333     1.96576     1.96576
   594   2   -17.69181     1.96576     1.96576
   595   2   -13.76030     1.96576     1.96576
   596   2    -9.82878     1.96576     1.96576
   597   2    -5.89727     1.96576     1.96576
   598   2    -1.96576     1.96576     1.96576
   599   2     1.96576     1.96576     1.96576
   600   2     5.89727     1.96576     1.96576
   601   2     9.82878     1.96576     1.96576
   602   2    13.76030     1.96576     1.96576
   603   2    17.69181     1.96576     1.96576
   604   2    21.62333     1.96576     1.96576
   605   2   -21.62333     5.89727     1.96576
   606   2   -17.69181     5.89727     1.96576
   607   2   -13.76030     5.89727     1.96576
   608   2    -9.82878     5.89727     1.96576
   609   2    -5.89727     5.89727     1.96576
   610   2    -1.96576     5.89727     1.96576
   611   2     1.96576     5.89727     1.96576
   612   2     5.89727     5.89727     1.96576
   613   2     9.82878     5.89727     1.96576
   614   2    13.76030     5.89727     1.96576
   615   2    17.69181     5.89727     1.96576
   616   2    21.62333     5.89727     1.96576
   617   2   -21.62333     9.82878     1.96576
   618   2   -17.69181     9.82878     1.96576
   619   2   -13.76030     9.82878     1.96576
   620   2    -9.82878     9.82878     1.96576
   621   2    -5.89727     9.82878     1.96576
   622   2    -1.96576     9.82878     1.96576
   623   2     1.96576     9.82878     1.96576
   624   2     5.89727     9.82878     1.96576
   625   2     9.82878     9.82878     1.96576
   626   2    13.76030     9.82878     1.96576
   627   2    17.69181     9.82878     1.96576
   628   2    21.62333     9.82878     1.96576
   629   2   -17.69181    13.76030     1.96576
   630   2   -13.76030    13.76030     1.96576
   631   2    -9.82878    13.76030     1.96576
   632   2    -5.89727    13.76030     1.96576
   633   2    -1.96576    13.76030     1.96576
   634   2     1.96576    13.76030     1.96576