LAMMPS DATA FOR MEAM SIMULATION

    928   atoms
      3   atom types

  -24.85   24.85   xlo xhi
  -24.85   24.85   ylo yhi
  -24.85   24.85   zlo zhi

 Atoms

     1   1    -0.69500    -0.40126    -1.13500
     2   1     0.69500     0.40126     1.13500
     3   1    -0.69500    -2.00629     1.13500
     4   1     0.69500     2.00629    -1.13500
     5   1    -2.08500     0.40126     1.13500
     6   1     2.08500    -0.40126    -1.13500
     7   1    -2.08500     2.00629    -1.13500
     8   1     2.08500    -2.00629     1.13500
     9   1    -0.69500     2.80881     1.13500
    10   1     0.69500    -2.80881    -1.13500
    11   1    -0.69500    -0.40126     3.40500
    12   1     0.69500     0.40126    -3.40500
    13   1    -3.47500    -0.40126    -1.13500
    14   1     3.47500     0.40126     1.13500
    15   1    -2.08500    -2.80881    -1.13500
    16   1     2.08500     2.80881     1.13500
    17   1    -0.69500    -2.00629    -3.40500
    18   1     0.69500     2.00629     3.40500
    19   1    -2.08500     0.40126    -3.40500
    20   1     2.08500    -0.40126     3.40500
    21   1    -3.47500    -2.00629     1.13500
    22   1     3.47500     2.00629    -1.13500
    23   1    -2.08500     2.00629     3.40500
    24   1     2.08500    -2.00629    -3.40500
    25   1    -0.69500     2.80881    -3.40500
    26   1     0.69500    -2.80881     3.40500
    27   1    -0.69500     4.41384    -1.13500
    28   1     0.69500    -4.41384     1.13500
    29   1    -3.47500     2.80881     1.13500
    30   1     3.47500    -2.80881    -1.13500
    31   1    -3.47500    -0.40126     3.40500
    32   1     3.47500     0.40126    -3.40500
    33   1    -2.08500    -2.80881     3.40500
    34   1     2.08500     2.80881    -3.40500
    35   1    -2.08500    -4.41384     1.13500
    36   1     2.08500     4.41384    -1.13500
    37   1    -4.86500     0.40126     1.13500
    38   1     4.86500    -0.40126    -1.13500
    39   1    -3.47500    -2.00629    -3.40500
    40   1     3.47500     2.00629     3.40500
    41   1    -4.86500     2.00629    -1.13500
    42   1     4.86500    -2.00629     1.13500
    43   1    -0.69500    -5.21636    -1.13500
    44   1     0.69500     5.21636     1.13500
    45   1    -0.69500     4.41384     3.40500
    46   1     0.69500    -4.41384    -3.40500
    47   1    -3.47500     2.80881    -3.40500
    48   1     3.47500    -2.80881     3.40500
    49   1    -3.47500     4.41384    -1.13500
    50   1     3.47500    -4.41384     1.13500
    51   1    -2.08500     5.21636     1.13500
    52   1     2.08500    -5.21636    -1.13500
    53   1    -4.86500    -2.80881    -1.13500
    54   1     4.86500     2.80881     1.13500
    55   1    -0.69500    -0.40126    -5.67500
    56   1     0.69500     0.40126     5.67500
    57   1    -2.08500    -4.41384    -3.40500
    58   1     2.08500     4.41384     3.40500
    59   1    -4.86500     0.40126    -3.40500
    60   1     4.86500    -0.40126     3.40500
    61   1    -0.69500    -2.00629     5.67500
    62   1     0.69500     2.00629    -5.67500
    63   1    -2.08500     0.40126     5.67500
    64   1     2.08500    -0.40126    -5.67500
    65   1    -4.86500     2.00629     3.40500
    66   1     4.86500    -2.00629    -3.40500
    67   1    -0.69500    -5.21636     3.40500
    68   1     0.69500     5.21636    -3.40500
    69   1    -6.25500    -0.40126    -1.13500
    70   1     6.25500     0.40126     1.13500
    71   1    -3.47500    -5.21636    -1.13500
    72   1     3.47500     5.21636     1.13500
    73   1    -2.08500     2.00629    -5.67500
    74   1     2.08500    -2.00629     5.67500
    75   1    -0.69500     2.80881     5.67500
    76   1     0.69500    -2.80881    -5.67500
    77   1    -3.47500     4.41384     3.40500
    78   1     3.47500    -4.41384    -3.40500
    79   1    -2.08500     5.21636    -3.40500
    80   1     2.08500    -5.21636     3.40500
    81   1    -4.86500    -2.80881     3.40500
    82   1     4.86500     2.80881    -3.40500
    83   1    -4.86500    -4.41384     1.13500
    84   1     4.86500     4.41384    -1.13500
    85   1    -6.25500    -2.00629     1.13500
    86   1     6.25500     2.00629    -1.13500
    87   1    -3.47500    -0.40126    -5.67500
    88   1     3.47500     0.40126     5.67500
    89   1    -2.08500    -2.80881    -5.67500
    90   1     2.08500     2.80881     5.67500
    91   1    -0.69500    -6.82139     1.13500
    92   1     0.69500     6.82139    -1.13500
    93   1    -6.25500     2.80881     1.13500
    94   1     6.25500    -2.80881    -1.13500
    95   1    -3.47500    -2.00629     5.67500
    96   1     3.47500     2.00629    -5.67500
    97   1    -6.25500    -0.40126     3.40500
    98   1     6.25500     0.40126    -3.40500
    99   1    -3.47500    -5.21636     3.40500
   100   1     3.47500     5.21636    -3.40500
   101   1    -2.08500     6.82139    -1.13500
   102   1     2.08500    -6.82139     1.13500
   103   1    -4.86500     5.21636     1.13500
   104   1     4.86500    -5.21636    -1.13500
   105   1    -0.69500     4.41384    -5.67500
   106   1     0.69500    -4.41384     5.67500
   107   1    -3.47500     2.80881     5.67500
   108   1     3.47500    -2.80881    -5.67500
   109   1    -4.86500    -4.41384    -3.40500
   110   1     4.86500     4.41384     3.40500
   111   1    -6.25500    -2.00629    -3.40500
   112   1     6.25500     2.00629     3.40500
   113   1    -2.08500    -4.41384     5.67500
   114   1     2.08500     4.41384    -5.67500
   115   1    -4.86500     0.40126     5.67500
   116   1     4.86500    -0.40126    -5.67500
   117   1    -0.69500    -6.82139    -3.40500
   118   1     0.69500     6.82139     3.40500
   119   1    -6.25500     2.80881    -3.40500
   120   1     6.25500    -2.80881     3.40500
   121   1    -3.47500    -6.82139     1.13500
   122   1     3.47500     6.82139    -1.13500
   123   1    -6.25500     4.41384    -1.13500
   124   1     6.25500    -4.41384     1.13500
   125   1    -0.69500     7.62391     1.13500
   126   1     0.69500    -7.62391    -1.13500
   127   1    -7.64500     0.40126     1.13500
   128   1     7.64500    -0.40126    -1.13500
   129   1    -4.86500     2.00629    -5.67500
   130   1     4.86500    -2.00629     5.67500
   131   1    -0.69500    -5.21636    -5.67500
   132   1     0.69500     5.21636     5.67500
   133   1    -2.08500     6.82139     3.40500
   134   1     2.08500    -6.82139    -3.40500
   135   1    -4.86500     5.21636    -3.40500
   136   1     4.86500    -5.21636     3.40500
   137   1    -7.64500     2.00629    -1.13500
   138   1     7.64500    -2.00629     1.13500
   139   1    -2.08500    -7.62391    -1.13500
   140   1     2.08500     7.62391     1.13500
   141   1    -3.47500     4.41384    -5.67500
   142   1     3.47500    -4.41384     5.67500
   143   1    -2.08500     5.21636     5.67500
   144   1     2.08500    -5.21636    -5.67500
   145   1    -4.86500    -2.80881    -5.67500
   146   1     4.86500     2.80881     5.67500
   147   1    -0.69500    -0.40126     7.94500
   148   1     0.69500     0.40126    -7.94500
   149   1    -6.25500    -5.21636    -1.13500
   150   1     6.25500     5.21636     1.13500
   151   1    -7.64500    -2.80881    -1.13500
   152   1     7.64500     2.80881     1.13500
   153   1    -0.69500    -2.00629    -7.94500
   154   1     0.69500     2.00629     7.94500
   155   1    -2.08500     0.40126    -7.94500
   156   1     2.08500    -0.40126     7.94500
   157   1    -3.47500    -6.82139    -3.40500
   158   1     3.47500     6.82139     3.40500
   159   1    -6.25500     4.41384     3.40500
   160   1     6.25500    -4.41384    -3.40500
   161   1    -0.69500     7.62391    -3.40500
   162   1     0.69500    -7.62391     3.40500
   163   1    -7.64500     0.40126    -3.40500
   164   1     7.64500    -0.40126     3.40500
   165   1    -4.86500     6.82139    -1.13500
   166   1     4.86500    -6.82139     1.13500
   167   1    -3.47500     7.62391     1.13500
   168   1     3.47500    -7.62391    -1.13500
   169   1    -6.25500    -0.40126    -5.67500
   170   1     6.25500     0.40126     5.67500
   171   1    -3.47500    -5.21636    -5.67500
   172   1     3.47500     5.21636     5.67500
   173   1    -2.08500     2.00629     7.94500
   174   1     2.08500    -2.00629    -7.94500
   175   1    -0.69500     2.80881    -7.94500
   176   1     0.69500    -2.80881     7.94500
   177   1    -7.64500     2.00629     3.40500
   178   1     7.64500    -2.00629    -3.40500
   179   1    -2.08500    -7.62391     3.40500
   180   1     2.08500     7.62391    -3.40500
   181   1    -4.86500    -4.41384     5.67500
   182   1     4.86500     4.41384    -5.67500
   183   1    -6.25500    -2.00629     5.67500
   184   1     6.25500     2.00629    -5.67500
   185   1    -3.47500    -0.40126     7.94500
   186   1     3.47500     0.40126    -7.94500
   187   1    -2.08500    -2.80881     7.94500
   188   1     2.08500     2.80881    -7.94500
   189   1    -6.25500    -5.21636     3.40500
   190   1     6.25500     5.21636    -3.40500
   191   1    -7.64500    -2.80881     3.40500
   192   1     7.64500     2.80881    -3.40500
   193   1    -7.64500    -4.41384     1.13500
   194   1     7.64500     4.41384    -1.13500
   195   1    -0.69500    -6.82139     5.67500
   196   1     0.69500     6.82139    -5.67500
   197   1    -6.25500     2.80881     5.67500
   198   1     6.25500    -2.80881    -5.67500
   199   1    -3.47500    -2.00629    -7.94500
   200   1     3.47500     2.00629     7.94500
   201   1    -4.86500     6.82139     3.40500
   202   1     4.86500    -6.82139    -3.40500
   203   1    -3.47500     7.62391    -3.40500
   204   1     3.47500    -7.62391     3.40500
   205   1    -4.86500    -7.62391    -1.13500
   206   1     4.86500     7.62391     1.13500
   207   1    -9.03500    -0.40126    -1.13500
   208   1     9.03500     0.40126     1.13500
   209   1    -2.08500     6.82139    -5.67500
   210   1     2.08500    -6.82139     5.67500
   211   1    -4.86500     5.21636     5.67500
   212   1     4.86500    -5.21636    -5.67500
   213   1    -0.69500     4.41384     7.94500
   214   1     0.69500    -4.41384    -7.94500
   215   1    -3.47500     2.80881    -7.94500
   216   1     3.47500    -2.80881     7.94500
   217   1    -0.69500     9.22894    -1.13500
   218   1     0.69500    -9.22894     1.13500
   219   1    -6.25500    -6.82139     1.13500
   220   1     6.25500     6.82139    -1.13500
   221   1    -9.03500    -2.00629     1.13500
   222   1     9.03500     2.00629    -1.13500
   223   1    -7.64500     5.21636     1.13500
   224   1     7.64500    -5.21636    -1.13500
   225   1    -2.08500    -4.41384    -7.94500
   226   1     2.08500     4.41384     7.94500
   227   1    -4.86500     0.40126    -7.94500
   228   1     4.86500    -0.40126     7.94500
   229   1    -7.64500    -4.41384    -3.40500
   230   1     7.64500     4.41384     3.40500
   231   1    -2.08500    -9.22894     1.13500
   232   1     2.08500     9.22894    -1.13500
   233   1    -9.03500     2.80881     1.13500
   234   1     9.03500    -2.80881    -1.13500
   235   1    -3.47500    -6.82139     5.67500
   236   1     3.47500     6.82139    -5.67500
   237   1    -6.25500     4.41384    -5.67500
   238   1     6.25500    -4.41384     5.67500
   239   1    -0.69500     7.62391     5.67500
   240   1     0.69500    -7.62391    -5.67500
   241   1    -7.64500     0.40126     5.67500
   242   1     7.64500    -0.40126    -5.67500
   243   1    -4.86500     2.00629     7.94500
   244   1     4.86500    -2.00629    -7.94500
   245   1    -0.69500    -5.21636     7.94500
   246   1     0.69500     5.21636    -7.94500
   247   1    -4.86500    -7.62391     3.40500
   248   1     4.86500     7.62391    -3.40500
   249   1    -9.03500    -0.40126     3.40500
   250   1     9.03500     0.40126    -3.40500
   251   1    -7.64500     2.00629    -5.67500
   252   1     7.64500    -2.00629     5.67500
   253   1    -2.08500    -7.62391    -5.67500
   254   1     2.08500     7.62391     5.67500
   255   1    -3.47500     4.41384     7.94500
   256   1     3.47500    -4.41384    -7.94500
   257   1    -2.08500     5.21636    -7.94500
   258   1     2.08500    -5.21636     7.94500
   259   1    -4.86500    -2.80881     7.94500
   260   1     4.86500     2.80881    -7.94500
   261   1    -0.69500     9.22894     3.40500
   262   1     0.69500    -9.22894    -3.40500
   263   1    -6.25500    -6.82139    -3.40500
   264   1     6.25500     6.82139     3.40500
   265   1    -9.03500    -2.00629    -3.40500
   266   1     9.03500     2.00629     3.40500
   267   1    -7.64500     5.21636    -3.40500
   268   1     7.64500    -5.21636     3.40500
   269   1    -3.47500     9.22894    -1.13500
   270   1     3.47500    -9.22894     1.13500
   271   1    -6.25500     7.62391     1.13500
   272   1     6.25500    -7.62391    -1.13500
   273   1    -6.25500    -5.21636    -5.67500
   274   1     6.25500     5.21636     5.67500
   275   1    -7.64500    -2.80881    -5.67500
   276   1     7.64500     2.80881     5.67500
   277   1    -2.08500    -9.22894    -3.40500
   278   1     2.08500     9.22894     3.40500
   279   1    -9.03500     2.80881    -3.40500
   280   1     9.03500    -2.80881     3.40500
   281   1    -9.03500     4.41384    -1.13500
   282   1     9.03500    -4.41384     1.13500
   283   1    -0.69500   -10.03146    -1.13500
   284   1     0.69500    10.03146     1.13500
   285   1    -4.86500     6.82139    -5.67500
   286   1     4.86500    -6.82139     5.67500
   287   1    -3.47500     7.62391     5.67500
   288   1     3.47500    -7.62391    -5.67500
   289   1    -6.25500    -0.40126     7.94500
   290   1     6.25500     0.40126    -7.94500
   291   1    -3.47500    -5.21636     7.94500
   292   1     3.47500     5.21636    -7.94500
   293   1    -0.69500    -0.40126   -10.21500
   294   1     0.69500     0.40126    10.21500
   295   1    -7.64500     6.82139    -1.13500
   296   1     7.64500    -6.82139     1.13500
   297   1    -2.08500    10.03146     1.13500
   298   1     2.08500   -10.03146    -1.13500
   299   1    -4.86500    -4.41384    -7.94500
   300   1     4.86500     4.41384     7.94500
   301   1    -6.25500    -2.00629    -7.94500
   302   1     6.25500     2.00629     7.94500
   303   1    -3.47500     9.22894     3.40500
   304   1     3.47500    -9.22894    -3.40500
   305   1    -6.25500     7.62391    -3.40500
   306   1     6.25500    -7.62391     3.40500
   307   1    -0.69500    -2.00629    10.21500
   308   1     0.69500     2.00629   -10.21500
   309   1    -2.08500     0.40126    10.21500
   310   1     2.08500    -0.40126   -10.21500
   311   1    -4.86500    -9.22894     1.13500
   312   1     4.86500     9.22894    -1.13500
   313   1   -10.42500     0.40126     1.13500
   314   1    10.42500    -0.40126    -1.13500
   315   1    -9.03500    -5.21636    -1.13500
   316   1     9.03500     5.21636     1.13500
   317   1    -7.64500    -4.41384     5.67500
   318   1     7.64500     4.41384    -5.67500
   319   1    -0.69500    -6.82139    -7.94500
   320   1     0.69500     6.82139     7.94500
   321   1    -6.25500     2.80881    -7.94500
   322   1     6.25500    -2.80881     7.94500
   323   1    -9.03500     4.41384     3.40500
   324   1     9.03500    -4.41384    -3.40500
   325   1    -0.69500   -10.03146     3.40500
   326   1     0.69500    10.03146    -3.40500
   327   1    -2.08500     2.00629   -10.21500
   328   1     2.08500    -2.00629    10.21500
   329   1    -0.69500     2.80881    10.21500
   330   1     0.69500    -2.80881   -10.21500
   331   1    -3.47500   -10.03146    -1.13500
   332   1     3.47500    10.03146     1.13500
   333   1   -10.42500     2.00629    -1.13500
   334   1    10.42500    -2.00629     1.13500
   335   1    -4.86500    -7.62391    -5.67500
   336   1     4.86500     7.62391     5.67500
   337   1    -9.03500    -0.40126    -5.67500
   338   1     9.03500     0.40126     5.67500
   339   1    -2.08500     6.82139     7.94500
   340   1     2.08500    -6.82139    -7.94500
   341   1    -4.86500     5.21636    -7.94500
   342   1     4.86500    -5.21636     7.94500
   343   1    -7.64500     6.82139     3.40500
   344   1     7.64500    -6.82139    -3.40500
   345   1    -2.08500    10.03146    -3.40500
   346   1     2.08500   -10.03146     3.40500
   347   1    -3.47500    -0.40126   -10.21500
   348   1     3.47500     0.40126    10.21500
   349   1    -2.08500    -2.80881   -10.21500
   350   1     2.08500     2.80881    10.21500
   351   1    -7.64500    -7.62391    -1.13500
   352   1     7.64500     7.62391     1.13500
   353   1   -10.42500    -2.80881    -1.13500
   354   1    10.42500     2.80881     1.13500
   355   1    -0.69500     9.22894    -5.67500
   356   1     0.69500    -9.22894     5.67500
   357   1    -6.25500    -6.82139     5.67500
   358   1     6.25500     6.82139    -5.67500
   359   1    -9.03500    -2.00629     5.67500
   360   1     9.03500     2.00629    -5.67500
   361   1    -7.64500     5.21636     5.67500
   362   1     7.64500    -5.21636    -5.67500
   363   1    -4.86500    -9.22894    -3.40500
   364   1     4.86500     9.22894     3.40500
   365   1   -10.42500     0.40126    -3.40500
   366   1    10.42500    -0.40126     3.40500
   367   1    -9.03500    -5.21636     3.40500
   368   1     9.03500     5.21636    -3.40500
   369   1    -3.47500    -2.00629    10.21500
   370   1     3.47500     2.00629   -10.21500
   371   1    -2.08500    -9.22894     5.67500
   372   1     2.08500     9.22894    -5.67500
   373   1    -9.03500     2.80881     5.67500
   374   1     9.03500    -2.80881    -5.67500
   375   1    -3.47500    -6.82139    -7.94500
   376   1     3.47500     6.82139     7.94500
   377   1    -6.25500     4.41384     7.94500
   378   1     6.25500    -4.41384    -7.94500
   379   1    -0.69500     7.62391    -7.94500
   380   1     0.69500    -7.62391     7.94500
   381   1    -7.64500     0.40126    -7.94500
   382   1     7.64500    -0.40126     7.94500
   383   1    -3.47500   -10.03146     3.40500
   384   1     3.47500    10.03146    -3.40500
   385   1   -10.42500     2.00629     3.40500
   386   1    10.42500    -2.00629    -3.40500
   387   1    -0.69500     4.41384   -10.21500
   388   1     0.69500    -4.41384    10.21500
   389   1    -3.47500     2.80881    10.21500
   390   1     3.47500    -2.80881   -10.21500
   391   1    -6.25500     9.22894    -1.13500
   392   1     6.25500    -9.22894     1.13500
   393   1    -4.86500    10.03146     1.13500
   394   1     4.86500   -10.03146    -1.13500
   395   1    -7.64500     2.00629     7.94500
   396   1     7.64500    -2.00629    -7.94500
   397   1    -2.08500    -7.62391     7.94500
   398   1     2.08500     7.62391    -7.94500
   399   1    -7.64500    -7.62391     3.40500
   400   1     7.64500     7.62391    -3.40500
   401   1   -10.42500    -2.80881     3.40500
   402   1    10.42500     2.80881    -3.40500
   403   1    -2.08500    -4.41384    10.21500
   404   1     2.08500     4.41384   -10.21500
   405   1    -4.86500     0.40126    10.21500
   406   1     4.86500    -0.40126   -10.21500
   407   1    -9.03500    -6.82139     1.13500
   408   1     9.03500     6.82139    -1.13500
   409   1   -10.42500    -4.41384     1.13500
   410   1    10.42500     4.41384    -1.13500
   411   1    -3.47500     9.22894    -5.67500
   412   1     3.47500    -9.22894     5.67500
   413   1    -6.25500     7.62391     5.67500
   414   1     6.25500    -7.62391    -5.67500
   415   1    -6.25500    -5.21636     7.94500
   416   1     6.25500     5.21636    -7.94500
   417   1    -7.64500    -2.80881     7.94500
   418   1     7.64500     2.80881    -7.94500
   419   1    -4.86500     2.00629   -10.21500
   420   1     4.86500    -2.00629    10.21500
   421   1    -0.69500    -5.21636   -10.21500
   422   1     0.69500     5.21636    10.21500
   423   1    -9.03500     4.41384    -5.67500
   424   1     9.03500    -4.41384     5.67500
   425   1    -0.69500   -10.03146    -5.67500
   426   1     0.69500    10.03146     5.67500
   427   1    -4.86500     6.82139     7.94500
   428   1     4.86500    -6.82139    -7.94500
   429   1    -3.47500     7.62391    -7.94500
   430   1     3.47500    -7.62391     7.94500
   431   1    -6.25500     9.22894     3.40500
   432   1     6.25500    -9.22894    -3.40500
   433   1    -4.86500    10.03146    -3.40500
   434   1     4.86500   -10.03146     3.40500
   435   1    -3.47500     4.41384   -10.21500
   436   1     3.47500    -4.41384    10.21500
   437   1    -2.08500     5.21636    10.21500
   438   1     2.08500    -5.21636   -10.21500
   439   1    -4.86500    -2.80881   -10.21500
   440   1     4.86500     2.80881    10.21500
   441   1    -0.69500   -11.63649     1.13500
   442   1     0.69500    11.63649    -1.13500
   443   1   -10.42500     5.21636     1.13500
   444   1    10.42500    -5.21636    -1.13500
   445   1    -7.64500     6.82139    -5.67500
   446   1     7.64500    -6.82139     5.67500
   447   1    -2.08500    10.03146     5.67500
   448   1     2.08500   -10.03146    -5.67500
   449   1    -9.03500    -6.82139    -3.40500
   450   1     9.03500     6.82139     3.40500
   451   1   -10.42500    -4.41384    -3.40500
   452   1    10.42500     4.41384     3.40500
   453   1    -2.08500    11.63649    -1.13500
   454   1     2.08500   -11.63649     1.13500
   455   1    -6.25500   -10.03146    -1.13500
   456   1     6.25500    10.03146     1.13500
   457   1    -9.03500     7.62391     1.13500
   458   1     9.03500    -7.62391    -1.13500
   459   1   -11.81500    -0.40126    -1.13500
   460   1    11.81500     0.40126     1.13500
   461   1    -4.86500    -9.22894     5.67500
   462   1     4.86500     9.22894    -5.67500
   463   1   -10.42500     0.40126     5.67500
   464   1    10.42500    -0.40126    -5.67500
   465   1    -9.03500    -5.21636    -5.67500
   466   1     9.03500     5.21636     5.67500
   467   1    -7.64500    -4.41384    -7.94500
   468   1     7.64500     4.41384     7.94500
   469   1    -6.25500    -0.40126   -10.21500
   470   1     6.25500     0.40126    10.21500
   471   1    -3.47500    -5.21636   -10.21500
   472   1     3.47500     5.21636    10.21500
   473   1    -7.64500    -9.22894     1.13500
   474   1     7.64500     9.22894    -1.13500
   475   1   -11.81500    -2.00629     1.13500
   476   1    11.81500     2.00629    -1.13500
   477   1    -3.47500   -10.03146    -5.67500
   478   1     3.47500    10.03146     5.67500
   479   1   -10.42500     2.00629    -5.67500
   480   1    10.42500    -2.00629     5.67500
   481   1    -4.86500    -7.62391     7.94500
   482   1     4.86500     7.62391    -7.94500
   483   1    -9.03500    -0.40126     7.94500
   484   1     9.03500     0.40126    -7.94500
   485   1    -0.69500   -11.63649    -3.40500
   486   1     0.69500    11.63649     3.40500
   487   1   -10.42500     5.21636    -3.40500
   488   1    10.42500    -5.21636     3.40500
   489   1    -4.86500    -4.41384    10.21500
   490   1     4.86500     4.41384   -10.21500
   491   1    -6.25500    -2.00629    10.21500
   492   1     6.25500     2.00629   -10.21500
   493   1    -3.47500   -11.63649     1.13500
   494   1     3.47500    11.63649    -1.13500
   495   1   -11.81500     2.80881     1.13500
   496   1    11.81500    -2.80881    -1.13500
   497   1    -7.64500    -7.62391    -5.67500
   498   1     7.64500     7.62391     5.67500
   499   1   -10.42500    -2.80881    -5.67500
   500   1    10.42500     2.80881     5.67500
   501   1    -0.69500     9.22894     7.94500
   502   1     0.69500    -9.22894    -7.94500
   503   1    -6.25500    -6.82139    -7.94500
   504   1     6.25500     6.82139     7.94500
   505   1    -9.03500    -2.00629    -7.94500
   506   1     9.03500     2.00629     7.94500
   507   1    -7.64500     5.21636    -7.94500
   508   1     7.64500    -5.21636     7.94500
   509   1    -2.08500    11.63649     3.40500
   510   1     2.08500   -11.63649    -3.40500
   511   1    -6.25500   -10.03146     3.40500
   512   1     6.25500    10.03146    -3.40500
   513   1    -9.03500     7.62391    -3.40500
   514   1     9.03500    -7.62391     3.40500
   515   1   -11.81500    -0.40126     3.40500
   516   1    11.81500     0.40126    -3.40500
   517   1    -0.69500    -6.82139    10.21500
   518   1     0.69500     6.82139   -10.21500
   519   1    -6.25500     2.80881    10.21500
   520   1     6.25500    -2.80881   -10.21500
   521   1    -2.08500    -9.22894    -7.94500
   522   1     2.08500     9.22894     7.94500
   523   1    -9.03500     2.80881    -7.94500
   524   1     9.03500    -2.80881     7.94500
   525   1    -7.64500    -9.22894    -3.40500
   526   1     7.64500     9.22894     3.40500
   527   1   -11.81500    -2.00629    -3.40500
   528   1    11.81500     2.00629     3.40500
   529   1    -2.08500     6.82139   -10.21500
   530   1     2.08500    -6.82139    10.21500
   531   1    -4.86500     5.21636    10.21500
   532   1     4.86500    -5.21636   -10.21500
   533   1   -10.42500     6.82139    -1.13500
   534   1    10.42500    -6.82139     1.13500
   535   1    -0.69500    12.43901     1.13500
   536   1     0.69500   -12.43901    -1.13500
   537   1    -6.25500     9.22894    -5.67500
   538   1     6.25500    -9.22894     5.67500
   539   1    -4.86500    10.03146     5.67500
   540   1     4.86500   -10.03146    -5.67500
   541   1    -0.69500    -0.40126    12.48500
   542   1     0.69500     0.40126   -12.48500
   543   1    -3.47500   -11.63649    -3.40500
   544   1     3.47500    11.63649     3.40500
   545   1   -11.81500     2.80881    -3.40500
   546   1    11.81500    -2.80881     3.40500
   547   1    -4.86500    11.63649    -1.13500
   548   1     4.86500   -11.63649     1.13500
   549   1    -2.08500   -12.43901    -1.13500
   550   1     2.08500    12.43901     1.13500
   551   1   -11.81500     4.41384    -1.13500
   552   1    11.81500    -4.41384     1.13500
   553   1    -7.64500    10.03146     1.13500
   554   1     7.64500   -10.03146    -1.13500
   555   1    -9.03500    -6.82139     5.67500
   556   1     9.03500     6.82139    -5.67500
   557   1   -10.42500    -4.41384     5.67500
   558   1    10.42500     4.41384    -5.67500
   559   1    -3.47500     9.22894     7.94500
   560   1     3.47500    -9.22894    -7.94500
   561   1    -6.25500     7.62391    -7.94500
   562   1     6.25500    -7.62391     7.94500
   563   1    -0.69500    -2.00629   -12.48500
   564   1     0.69500     2.00629    12.48500
   565   1    -2.08500     0.40126   -12.48500
   566   1     2.08500    -0.40126    12.48500
   567   1    -3.47500    -6.82139    10.21500
   568   1     3.47500     6.82139   -10.21500
   569   1    -6.25500     4.41384   -10.21500
   570   1     6.25500    -4.41384    10.21500
   571   1    -0.69500     7.62391    10.21500
   572   1     0.69500    -7.62391   -10.21500
   573   1    -7.64500     0.40126    10.21500
   574   1     7.64500    -0.40126   -10.21500
   575   1    -9.03500     4.41384     7.94500
   576   1     9.03500    -4.41384    -7.94500
   577   1    -0.69500   -10.03146     7.94500
   578   1     0.69500    10.03146    -7.94500
   579   1    -2.08500     2.00629    12.48500
   580   1     2.08500    -2.00629   -12.48500
   581   1    -0.69500     2.80881   -12.48500
   582   1     0.69500    -2.80881    12.48500
   583   1   -10.42500     6.82139     3.40500
   584   1    10.42500    -6.82139    -3.40500
   585   1    -0.69500    12.43901    -3.40500
   586   1     0.69500   -12.43901     3.40500
   587   1    -7.64500     2.00629   -10.21500
   588   1     7.64500    -2.00629    10.21500
   589   1    -2.08500    -7.62391   -10.21500
   590   1     2.08500     7.62391    10.21500
   591   1    -9.03500     9.22894    -1.13500
   592   1     9.03500    -9.22894     1.13500
   593   1    -3.47500    12.43901     1.13500
   594   1     3.47500   -12.43901    -1.13500
   595   1   -10.42500    -7.62391    -1.13500
   596   1    10.42500     7.62391     1.13500
   597   1   -11.81500    -5.21636    -1.13500
   598   1    11.81500     5.21636     1.13500
   599   1    -0.69500   -11.63649     5.67500
   600   1     0.69500    11.63649    -5.67500
   601   1   -10.42500     5.21636     5.67500
   602   1    10.42500    -5.21636    -5.67500
   603   1    -7.64500     6.82139     7.94500
   604   1     7.64500    -6.82139    -7.94500
   605   1    -2.08500    10.03146    -7.94500
   606   1     2.08500   -10.03146     7.94500
   607   1    -3.47500    -0.40126    12.48500
   608   1     3.47500     0.40126   -12.48500
   609   1    -2.08500    -2.80881    12.48500
   610   1     2.08500     2.80881   -12.48500
   611   1    -4.86500    11.63649     3.40500
   612   1     4.86500   -11.63649    -3.40500
   613   1    -2.08500   -12.43901     3.40500
   614   1     2.08500    12.43901    -3.40500
   615   1   -11.81500     4.41384     3.40500
   616   1    11.81500    -4.41384    -3.40500
   617   1    -7.64500    10.03146    -3.40500
   618   1     7.64500   -10.03146     3.40500
   619   1    -6.25500    -5.21636   -10.21500
   620   1     6.25500     5.21636    10.21500
   621   1    -7.64500    -2.80881   -10.21500
   622   1     7.64500     2.80881    10.21500
   623   1    -2.08500    11.63649    -5.67500
   624   1     2.08500   -11.63649     5.67500
   625   1    -6.25500   -10.03146    -5.67500
   626   1     6.25500    10.03146     5.67500
   627   1    -9.03500     7.62391     5.67500
   628   1     9.03500    -7.62391    -5.67500
   629   1   -11.81500    -0.40126    -5.67500
   630   1    11.81500     0.40126     5.67500
   631   1    -4.86500    -9.22894    -7.94500
   632   1     4.86500     9.22894     7.94500
   633   1   -10.42500     0.40126    -7.94500
   634   1    10.42500    -0.40126     7.94500