LAMMPS DATA FOR MEAM SIMULATION

    959   atoms
      3   atom types

  -24.45   24.45   xlo xhi
  -24.45   24.45   ylo yhi
  -24.45   24.45   zlo zhi

 Atoms

     1   1     0.00000     0.00000    -0.00000
     2   1     2.78000     0.00000    -0.00000
     3   1     1.39000     2.40755    -0.00000
     4   1    -1.39000     2.40755    -0.00000
     5   1    -2.78000     0.00000    -0.00000
     6   1    -1.39000    -2.40755    -0.00000
     7   1     1.39000    -2.40755    -0.00000
     8   1     1.39000    -0.80252     2.26986
     9   1     0.00000     1.60503     2.26986
    10   1    -1.39000    -0.80252     2.26986
    11   1     0.00000    -1.60503    -2.26986
    12   1     1.39000     0.80252    -2.26986
    13   1    -1.39000     0.80252    -2.26986
    14   1     5.56000     0.00000    -0.00000
    15   1     2.78000     4.81510    -0.00000
    16   1    -2.78000     4.81510    -0.00000
    17   1    -5.56000     0.00000    -0.00000
    18   1    -2.78000    -4.81510    -0.00000
    19   1     2.78000    -4.81510    -0.00000
    20   1     2.78000    -1.60503     4.53972
    21   1     0.00000     3.21007     4.53972
    22   1    -2.78000    -1.60503     4.53972
    23   1     0.00000    -3.21007    -4.53972
    24   1     2.78000     1.60503    -4.53972
    25   1    -2.78000     1.60503    -4.53972
    26   1     4.17000     2.40755    -0.00000
    27   1     4.17000    -0.80252     2.26986
    28   1     4.17000     0.80252    -2.26986
    29   1     0.00000     4.81510    -0.00000
    30   1     1.39000     4.01258     2.26986
    31   1     2.78000     3.21007    -2.26986
    32   1    -4.17000     2.40755    -0.00000
    33   1    -1.39000     4.01258     2.26986
    34   1    -2.78000     3.21007    -2.26986
    35   1    -4.17000    -2.40755    -0.00000
    36   1    -4.17000    -0.80252     2.26986
    37   1    -4.17000     0.80252    -2.26986
    38   1     0.00000    -4.81510    -0.00000
    39   1    -2.78000    -3.21007     2.26986
    40   1    -1.39000    -4.01258    -2.26986
    41   1     4.17000    -2.40755    -0.00000
    42   1     2.78000    -3.21007     2.26986
    43   1     1.39000    -4.01258    -2.26986
    44   1     1.39000     0.80252     4.53972
    45   1     0.00000    -1.60503     4.53972
    46   1    -1.39000     0.80252     4.53972
    47   1     1.39000    -0.80252    -4.53972
    48   1    -1.39000    -0.80252    -4.53972
    49   1     0.00000     1.60503    -4.53972
    50   1     2.78000     1.60503     2.26986
    51   1     0.00000     3.21007    -2.26986
    52   1    -2.78000     1.60503     2.26986
    53   1    -2.78000    -1.60503    -2.26986
    54   1     0.00000    -3.21007     2.26986
    55   1     2.78000    -1.60503    -2.26986
    56   1     8.34000     0.00000    -0.00000
    57   1     4.17000     7.22265    -0.00000
    58   1    -4.17000     7.22265    -0.00000
    59   1    -8.34000     0.00000    -0.00000
    60   1    -4.17000    -7.22265    -0.00000
    61   1     4.17000    -7.22265    -0.00000
    62   1     4.17000    -2.40755     6.80958
    63   1     0.00000     4.81510     6.80958
    64   1    -4.17000    -2.40755     6.80958
    65   1     0.00000    -4.81510    -6.80958
    66   1     4.17000     2.40755    -6.80958
    67   1    -4.17000     2.40755    -6.80958
    68   1     6.95000     2.40755    -0.00000
    69   1     6.95000    -0.80252     2.26986
    70   1     6.95000     0.80252    -2.26986
    71   1     1.39000     7.22265    -0.00000
    72   1     2.78000     6.42013     2.26986
    73   1     4.17000     5.61762    -2.26986
    74   1    -5.56000     4.81510    -0.00000
    75   1    -2.78000     6.42013     2.26986
    76   1    -4.17000     5.61762    -2.26986
    77   1    -6.95000    -2.40755    -0.00000
    78   1    -6.95000    -0.80252     2.26986
    79   1    -6.95000     0.80252    -2.26986
    80   1    -1.39000    -7.22265    -0.00000
    81   1    -4.17000    -5.61762     2.26986
    82   1    -2.78000    -6.42013    -2.26986
    83   1     5.56000    -4.81510    -0.00000
    84   1     4.17000    -5.61762     2.26986
    85   1     2.78000    -6.42013    -2.26986
    86   1     2.78000     0.00000     6.80958
    87   1     1.39000    -2.40755     6.80958
    88   1    -1.39000     2.40755     6.80958
    89   1     1.39000    -2.40755    -6.80958
    90   1    -1.39000    -2.40755    -6.80958
    91   1     1.39000     2.40755    -6.80958
    92   1     5.56000     4.81510    -0.00000
    93   1     5.56000    -1.60503     4.53972
    94   1     5.56000     1.60503    -4.53972
    95   1    -1.39000     7.22265    -0.00000
    96   1     1.39000     5.61762     4.53972
    97   1     4.17000     4.01258    -4.53972
    98   1    -6.95000     2.40755    -0.00000
    99   1    -1.39000     5.61762     4.53972
   100   1    -4.17000     4.01258    -4.53972
   101   1    -5.56000    -4.81510    -0.00000
   102   1    -5.56000    -1.60503     4.53972
   103   1    -5.56000     1.60503    -4.53972
   104   1     1.39000    -7.22265    -0.00000
   105   1    -4.17000    -4.01258     4.53972
   106   1    -1.39000    -5.61762    -4.53972
   107   1     6.95000    -2.40755    -0.00000
   108   1     4.17000    -4.01258     4.53972
   109   1     1.39000    -5.61762    -4.53972
   110   1     1.39000     2.40755     6.80958
   111   1    -1.39000    -2.40755     6.80958
   112   1    -2.78000     0.00000     6.80958
   113   1     2.78000     0.00000    -6.80958
   114   1    -2.78000     0.00000    -6.80958
   115   1    -1.39000     2.40755    -6.80958
   116   1     5.56000     3.21007    -2.26986
   117   1     0.00000     6.42013     2.26986
   118   1    -5.56000     3.21007    -2.26986
   119   1    -5.56000    -3.21007     2.26986
   120   1     0.00000    -6.42013    -2.26986
   121   1     5.56000    -3.21007     2.26986
   122   1     0.00000     0.00000     6.80958
   123   1     0.00000     0.00000    -6.80958
   124   1     5.56000     1.60503     2.26986
   125   1     1.39000     5.61762    -2.26986
   126   1    -4.17000     4.01258     2.26986
   127   1    -5.56000    -1.60503    -2.26986
   128   1    -1.39000    -5.61762     2.26986
   129   1     4.17000    -4.01258    -2.26986
   130   1     4.17000     0.80252     4.53972
   131   1     1.39000     4.01258    -4.53972
   132   1    -2.78000     3.21007     4.53972
   133   1    -4.17000    -0.80252    -4.53972
   134   1    -1.39000    -4.01258     4.53972
   135   1     2.78000    -3.21007    -4.53972
   136   1     4.17000     4.01258     2.26986
   137   1    -1.39000     5.61762    -2.26986
   138   1    -5.56000     1.60503     2.26986
   139   1    -4.17000    -4.01258    -2.26986
   140   1     1.39000    -5.61762     2.26986
   141   1     5.56000    -1.60503    -2.26986
   142   1     2.78000     3.21007     4.53972
   143   1    -1.39000     4.01258    -4.53972
   144   1    -4.17000     0.80252     4.53972
   145   1    -2.78000    -3.21007    -4.53972
   146   1     1.39000    -4.01258     4.53972
   147   1     4.17000    -0.80252    -4.53972
   148   1    11.12000     0.00000    -0.00000
   149   1     5.56000     9.63020    -0.00000
   150   1    -5.56000     9.63020    -0.00000
   151   1   -11.12000     0.00000    -0.00000
   152   1    -5.56000    -9.63020    -0.00000
   153   1     5.56000    -9.63020    -0.00000
   154   1     5.56000    -3.21007     9.07944
   155   1     0.00000     6.42013     9.07944
   156   1    -5.56000    -3.21007     9.07944
   157   1     0.00000    -6.42013    -9.07944
   158   1     5.56000     3.21007    -9.07944
   159   1    -5.56000     3.21007    -9.07944
   160   1     9.73000     2.40755    -0.00000
   161   1     9.73000    -0.80252     2.26986
   162   1     9.73000     0.80252    -2.26986
   163   1     2.78000     9.63020    -0.00000
   164   1     4.17000     8.82769     2.26986
   165   1     5.56000     8.02517    -2.26986
   166   1    -6.95000     7.22265    -0.00000
   167   1    -4.17000     8.82769     2.26986
   168   1    -5.56000     8.02517    -2.26986
   169   1    -9.73000    -2.40755    -0.00000
   170   1    -9.73000    -0.80252     2.26986
   171   1    -9.73000     0.80252    -2.26986
   172   1    -2.78000    -9.63020    -0.00000
   173   1    -5.56000    -8.02517     2.26986
   174   1    -4.17000    -8.82769    -2.26986
   175   1     6.95000    -7.22265    -0.00000
   176   1     5.56000    -8.02517     2.26986
   177   1     4.17000    -8.82769    -2.26986
   178   1     4.17000    -0.80252     9.07944
   179   1     2.78000    -3.21007     9.07944
   180   1    -1.39000     4.01258     9.07944
   181   1     1.39000    -4.01258    -9.07944
   182   1    -1.39000    -4.01258    -9.07944
   183   1     2.78000     3.21007    -9.07944
   184   1     8.34000     4.81510    -0.00000
   185   1     8.34000    -1.60503     4.53972
   186   1     8.34000     1.60503    -4.53972
   187   1     0.00000     9.63020    -0.00000
   188   1     2.78000     8.02517     4.53972
   189   1     5.56000     6.42013    -4.53972
   190   1    -8.34000     4.81510    -0.00000
   191   1    -2.78000     8.02517     4.53972
   192   1    -5.56000     6.42013    -4.53972
   193   1    -8.34000    -4.81510    -0.00000
   194   1    -8.34000    -1.60503     4.53972
   195   1    -8.34000     1.60503    -4.53972
   196   1     0.00000    -9.63020    -0.00000
   197   1    -5.56000    -6.42013     4.53972
   198   1    -2.78000    -8.02517    -4.53972
   199   1     8.34000    -4.81510    -0.00000
   200   1     5.56000    -6.42013     4.53972
   201   1     2.78000    -8.02517    -4.53972
   202   1     2.78000     1.60503     9.07944
   203   1     0.00000    -3.21007     9.07944
   204   1    -2.78000     1.60503     9.07944
   205   1     2.78000    -1.60503    -9.07944
   206   1    -2.78000    -1.60503    -9.07944
   207   1     0.00000     3.21007    -9.07944
   208   1     6.95000     7.22265    -0.00000
   209   1     6.95000    -2.40755     6.80958
   210   1     6.95000     2.40755    -6.80958
   211   1    -2.78000     9.63020    -0.00000
   212   1     1.39000     7.22265     6.80958
   213   1     5.56000     4.81510    -6.80958
   214   1    -9.73000     2.40755    -0.00000
   215   1    -1.39000     7.22265     6.80958
   216   1    -5.56000     4.81510    -6.80958
   217   1    -6.95000    -7.22265    -0.00000
   218   1    -6.95000    -2.40755     6.80958
   219   1    -6.95000     2.40755    -6.80958
   220   1     2.78000    -9.63020    -0.00000
   221   1    -5.56000    -4.81510     6.80958
   222   1    -1.39000    -7.22265    -6.80958
   223   1     9.73000    -2.40755    -0.00000
   224   1     5.56000    -4.81510     6.80958
   225   1     1.39000    -7.22265    -6.80958
   226   1     1.39000     4.01258     9.07944
   227   1    -2.78000    -3.21007     9.07944
   228   1    -4.17000    -0.80252     9.07944
   229   1     4.17000     0.80252    -9.07944
   230   1    -4.17000     0.80252    -9.07944
   231   1    -2.78000     3.21007    -9.07944
   232   1     8.34000     3.21007    -2.26986
   233   1     1.39000     8.82769     2.26986
   234   1    -6.95000     5.61762    -2.26986
   235   1    -8.34000    -3.21007     2.26986
   236   1    -1.39000    -8.82769    -2.26986
   237   1     6.95000    -5.61762     2.26986
   238   1     1.39000    -0.80252     9.07944
   239   1     0.00000    -1.60503    -9.07944
   240   1     6.95000     4.01258    -4.53972
   241   1     0.00000     8.02517     4.53972
   242   1    -6.95000     4.01258    -4.53972
   243   1    -6.95000    -4.01258     4.53972
   244   1     0.00000    -8.02517    -4.53972
   245   1     6.95000    -4.01258     4.53972
   246   1    -1.39000    -0.80252     9.07944
   247   1    -1.39000     0.80252    -9.07944
   248   1     8.34000     1.60503     2.26986
   249   1     2.78000     8.02517    -2.26986
   250   1    -5.56000     6.42013     2.26986
   251   1    -8.34000    -1.60503    -2.26986
   252   1    -2.78000    -8.02517     2.26986
   253   1     5.56000    -6.42013    -2.26986
   254   1     6.95000     0.80252     4.53972
   255   1     2.78000     6.42013    -4.53972
   256   1    -4.17000     5.61762     4.53972
   257   1    -6.95000    -0.80252    -4.53972
   258   1    -2.78000    -6.42013     4.53972
   259   1     4.17000    -5.61762    -4.53972
   260   1     5.56000     0.00000     6.80958
   261   1     2.78000     4.81510    -6.80958
   262   1    -2.78000     4.81510     6.80958
   263   1    -5.56000     0.00000    -6.80958
   264   1    -2.78000    -4.81510     6.80958
   265   1     2.78000    -4.81510    -6.80958
   266   1     6.95000     5.61762    -2.26986
   267   1    -1.39000     8.82769     2.26986
   268   1    -8.34000     3.21007    -2.26986
   269   1    -6.95000    -5.61762     2.26986
   270   1     1.39000    -8.82769    -2.26986
   271   1     8.34000    -3.21007     2.26986
   272   1     0.00000     1.60503     9.07944
   273   1     1.39000     0.80252    -9.07944
   274   1     6.95000     4.01258     2.26986
   275   1     0.00000     8.02517    -2.26986
   276   1    -6.95000     4.01258     2.26986
   277   1    -6.95000    -4.01258    -2.26986
   278   1     0.00000    -8.02517     2.26986
   279   1     6.95000    -4.01258    -2.26986
   280   1     5.56000     3.21007     4.53972
   281   1     0.00000     6.42013    -4.53972
   282   1    -5.56000     3.21007     4.53972
   283   1    -5.56000    -3.21007    -4.53972
   284   1     0.00000    -6.42013     4.53972
   285   1     5.56000    -3.21007    -4.53972
   286   1     4.17000     2.40755     6.80958
   287   1     0.00000     4.81510    -6.80958
   288   1    -4.17000     2.40755     6.80958
   289   1    -4.17000    -2.40755    -6.80958
   290   1     0.00000    -4.81510     6.80958
   291   1     4.17000    -2.40755    -6.80958
   292   1     5.56000     6.42013     2.26986
   293   1    -2.78000     8.02517    -2.26986
   294   1    -8.34000     1.60503     2.26986
   295   1    -5.56000    -6.42013    -2.26986
   296   1     2.78000    -8.02517     2.26986
   297   1     8.34000    -1.60503    -2.26986
   298   1     4.17000     5.61762     4.53972
   299   1    -2.78000     6.42013    -4.53972
   300   1    -6.95000     0.80252     4.53972
   301   1    -4.17000    -5.61762    -4.53972
   302   1     2.78000    -6.42013     4.53972
   303   1     6.95000    -0.80252    -4.53972
   304   1     2.78000     4.81510     6.80958
   305   1    -2.78000     4.81510    -6.80958
   306   1    -5.56000     0.00000     6.80958
   307   1    -2.78000    -4.81510    -6.80958
   308   1     2.78000    -4.81510     6.80958
   309   1     5.56000     0.00000    -6.80958
   310   1    13.90000     0.00000    -0.00000
   311   1     6.95000    12.03775    -0.00000
   312   1    -6.95000    12.03775    -0.00000
   313   1   -13.90000     0.00000    -0.00000
   314   1    -6.95000   -12.03775    -0.00000
   315   1     6.95000   -12.03775    -0.00000
   316   1     6.95000    -4.01258    11.34930
   317   1     0.00000     8.02517    11.34930
   318   1    -6.95000    -4.01258    11.34930
   319   1     0.00000    -8.02517   -11.34930
   320   1     6.95000     4.01258   -11.34930
   321   1    -6.95000     4.01258   -11.34930
   322   1    12.51000     2.40755    -0.00000
   323   1    12.51000    -0.80252     2.26986
   324   1    12.51000     0.80252    -2.26986
   325   1     4.17000    12.03775    -0.00000
   326   1     5.56000    11.23524     2.26986
   327   1     6.95000    10.43272    -2.26986
   328   1    -8.34000     9.63020    -0.00000
   329   1    -5.56000    11.23524     2.26986
   330   1    -6.95000    10.43272    -2.26986
   331   1   -12.51000    -2.40755    -0.00000
   332   1   -12.51000    -0.80252     2.26986
   333   1   -12.51000     0.80252    -2.26986
   334   1    -4.17000   -12.03775    -0.00000
   335   1    -6.95000   -10.43272     2.26986
   336   1    -5.56000   -11.23524    -2.26986
   337   1     8.34000    -9.63020    -0.00000
   338   1     6.95000   -10.43272     2.26986
   339   1     5.56000   -11.23524    -2.26986
   340   1     5.56000    -1.60503    11.34930
   341   1     4.17000    -4.01258    11.34930
   342   1    -1.39000     5.61762    11.34930
   343   1     1.39000    -5.61762   -11.34930
   344   1    -1.39000    -5.61762   -11.34930
   345   1     4.17000     4.01258   -11.34930
   346   1    11.12000     4.81510    -0.00000
   347   1    11.12000    -1.60503     4.53972
   348   1    11.12000     1.60503    -4.53972
   349   1     1.39000    12.03775    -0.00000
   350   1     4.17000    10.43272     4.53972
   351   1     6.95000     8.82769    -4.53972
   352   1    -9.73000     7.22265    -0.00000
   353   1    -4.17000    10.43272     4.53972
   354   1    -6.95000     8.82769    -4.53972
   355   1   -11.12000    -4.81510    -0.00000
   356   1   -11.12000    -1.60503     4.53972
   357   1   -11.12000     1.60503    -4.53972
   358   1    -1.39000   -12.03775    -0.00000
   359   1    -6.95000    -8.82769     4.53972
   360   1    -4.17000   -10.43272    -4.53972
   361   1     9.73000    -7.22265    -0.00000
   362   1     6.95000    -8.82769     4.53972
   363   1     4.17000   -10.43272    -4.53972
   364   1     4.17000     0.80252    11.34930
   365   1     1.39000    -4.01258    11.34930
   366   1    -2.78000     3.21007    11.34930
   367   1     2.78000    -3.21007   -11.34930
   368   1    -2.78000    -3.21007   -11.34930
   369   1     1.39000     4.01258   -11.34930
   370   1     9.73000     7.22265    -0.00000
   371   1     9.73000    -2.40755     6.80958
   372   1     9.73000     2.40755    -6.80958
   373   1    -1.39000    12.03775    -0.00000
   374   1     2.78000     9.63020     6.80958
   375   1     6.95000     7.22265    -6.80958
   376   1   -11.12000     4.81510    -0.00000
   377   1    -2.78000     9.63020     6.80958
   378   1    -6.95000     7.22265    -6.80958
   379   1    -9.73000    -7.22265    -0.00000
   380   1    -9.73000    -2.40755     6.80958
   381   1    -9.73000     2.40755    -6.80958
   382   1     1.39000   -12.03775    -0.00000
   383   1    -6.95000    -7.22265     6.80958
   384   1    -2.78000    -9.63020    -6.80958
   385   1    11.12000    -4.81510    -0.00000
   386   1     6.95000    -7.22265     6.80958
   387   1     2.78000    -9.63020    -6.80958
   388   1     2.78000     3.21007    11.34930
   389   1    -1.39000    -4.01258    11.34930
   390   1    -4.17000     0.80252    11.34930
   391   1     4.17000    -0.80252   -11.34930
   392   1    -4.17000    -0.80252   -11.34930
   393   1    -1.39000     4.01258   -11.34930
   394   1     8.34000     9.63020    -0.00000
   395   1     8.34000    -3.21007     9.07944
   396   1     8.34000     3.21007    -9.07944
   397   1    -4.17000    12.03775    -0.00000
   398   1     1.39000     8.82769     9.07944
   399   1     6.95000     5.61762    -9.07944
   400   1   -12.51000     2.40755    -0.00000
   401   1    -1.39000     8.82769     9.07944
   402   1    -6.95000     5.61762    -9.07944
   403   1    -8.34000    -9.63020    -0.00000
   404   1    -8.34000    -3.21007     9.07944
   405   1    -8.34000     3.21007    -9.07944
   406   1     4.17000   -12.03775    -0.00000
   407   1    -6.95000    -5.61762     9.07944
   408   1    -1.39000    -8.82769    -9.07944
   409   1    12.51000    -2.40755    -0.00000
   410   1     6.95000    -5.61762     9.07944
   411   1     1.39000    -8.82769    -9.07944
   412   1     1.39000     5.61762    11.34930
   413   1    -4.17000    -4.01258    11.34930
   414   1    -5.56000    -1.60503    11.34930
   415   1     5.56000     1.60503   -11.34930
   416   1    -5.56000     1.60503   -11.34930
   417   1    -4.17000     4.01258   -11.34930
   418   1    11.12000     3.21007    -2.26986
   419   1     2.78000    11.23524     2.26986
   420   1    -8.34000     8.02517    -2.26986
   421   1   -11.12000    -3.21007     2.26986
   422   1    -2.78000   -11.23524    -2.26986
   423   1     8.34000    -8.02517     2.26986
   424   1     2.78000    -1.60503    11.34930
   425   1     0.00000    -3.21007   -11.34930
   426   1     9.73000     4.01258    -4.53972
   427   1     1.39000    10.43272     4.53972
   428   1    -8.34000     6.42013    -4.53972
   429   1    -9.73000    -4.01258     4.53972
   430   1    -1.39000   -10.43272    -4.53972
   431   1     8.34000    -6.42013     4.53972
   432   1     0.00000    -1.60503    11.34930
   433   1    -1.39000    -0.80252   -11.34930
   434   1     8.34000     4.81510    -6.80958
   435   1     0.00000     9.63020     6.80958
   436   1    -8.34000     4.81510    -6.80958
   437   1    -8.34000    -4.81510     6.80958
   438   1     0.00000    -9.63020    -6.80958
   439   1     8.34000    -4.81510     6.80958
   440   1    -2.78000    -1.60503    11.34930
   441   1    -2.78000     1.60503   -11.34930
   442   1    11.12000     1.60503     2.26986
   443   1     4.17000    10.43272    -2.26986
   444   1    -6.95000     8.82769     2.26986
   445   1   -11.12000    -1.60503    -2.26986
   446   1    -4.17000   -10.43272     2.26986
   447   1     6.95000    -8.82769    -2.26986
   448   1     9.73000     0.80252     4.53972
   449   1     4.17000     8.82769    -4.53972
   450   1    -5.56000     8.02517     4.53972
   451   1    -9.73000    -0.80252    -4.53972
   452   1    -4.17000    -8.82769     4.53972
   453   1     5.56000    -8.02517    -4.53972
   454   1     8.34000     0.00000     6.80958
   455   1     4.17000     7.22265    -6.80958
   456   1    -4.17000     7.22265     6.80958
   457   1    -8.34000     0.00000    -6.80958
   458   1    -4.17000    -7.22265     6.80958
   459   1     4.17000    -7.22265    -6.80958
   460   1     6.95000    -0.80252     9.07944
   461   1     4.17000     5.61762    -9.07944
   462   1    -2.78000     6.42013     9.07944
   463   1    -6.95000     0.80252    -9.07944
   464   1    -4.17000    -5.61762     9.07944
   465   1     2.78000    -6.42013    -9.07944
   466   1     9.73000     5.61762    -2.26986
   467   1     0.00000    11.23524     2.26986
   468   1    -9.73000     5.61762    -2.26986
   469   1    -9.73000    -5.61762     2.26986
   470   1     0.00000   -11.23524    -2.26986
   471   1     9.73000    -5.61762     2.26986
   472   1     1.39000     0.80252    11.34930
   473   1     1.39000    -0.80252   -11.34930
   474   1     8.34000     6.42013    -4.53972
   475   1    -1.39000    10.43272     4.53972
   476   1    -9.73000     4.01258    -4.53972
   477   1    -8.34000    -6.42013     4.53972
   478   1     1.39000   -10.43272    -4.53972
   479   1     9.73000    -4.01258     4.53972
   480   1    -1.39000     0.80252    11.34930
   481   1     0.00000     1.60503   -11.34930
   482   1     9.73000     4.01258     2.26986
   483   1     1.39000    10.43272    -2.26986
   484   1    -8.34000     6.42013     2.26986
   485   1    -9.73000    -4.01258    -2.26986
   486   1    -1.39000   -10.43272     2.26986
   487   1     8.34000    -6.42013    -2.26986
   488   1     8.34000     3.21007     4.53972
   489   1     1.39000     8.82769    -4.53972
   490   1    -6.95000     5.61762     4.53972
   491   1    -8.34000    -3.21007    -4.53972
   492   1    -1.39000    -8.82769     4.53972
   493   1     6.95000    -5.61762    -4.53972
   494   1     6.95000     2.40755     6.80958
   495   1     1.39000     7.22265    -6.80958
   496   1    -5.56000     4.81510     6.80958
   497   1    -6.95000    -2.40755    -6.80958
   498   1    -1.39000    -7.22265     6.80958
   499   1     5.56000    -4.81510    -6.80958
   500   1     5.56000     1.60503     9.07944
   501   1     1.39000     5.61762    -9.07944
   502   1    -4.17000     4.01258     9.07944
   503   1    -5.56000    -1.60503    -9.07944
   504   1    -1.39000    -5.61762     9.07944
   505   1     4.17000    -4.01258    -9.07944
   506   1     8.34000     8.02517    -2.26986
   507   1    -2.78000    11.23524     2.26986
   508   1   -11.12000     3.21007    -2.26986
   509   1    -8.34000    -8.02517     2.26986
   510   1     2.78000   -11.23524    -2.26986
   511   1    11.12000    -3.21007     2.26986
   512   1     0.00000     3.21007    11.34930
   513   1     2.78000     1.60503   -11.34930
   514   1     8.34000     6.42013     2.26986
   515   1    -1.39000    10.43272    -2.26986
   516   1    -9.73000     4.01258     2.26986
   517   1    -8.34000    -6.42013    -2.26986
   518   1     1.39000   -10.43272     2.26986
   519   1     9.73000    -4.01258    -2.26986
   520   1     6.95000     5.61762     4.53972
   521   1    -1.39000     8.82769    -4.53972
   522   1    -8.34000     3.21007     4.53972
   523   1    -6.95000    -5.61762    -4.53972
   524   1     1.39000    -8.82769     4.53972
   525   1     8.34000    -3.21007    -4.53972
   526   1     5.56000     4.81510     6.80958
   527   1    -1.39000     7.22265    -6.80958
   528   1    -6.95000     2.40755     6.80958
   529   1    -5.56000    -4.81510    -6.80958
   530   1     1.39000    -7.22265     6.80958
   531   1     6.95000    -2.40755    -6.80958
   532   1     4.17000     4.01258     9.07944
   533   1    -1.39000     5.61762    -9.07944
   534   1    -5.56000     1.60503     9.07944
   535   1    -4.17000    -4.01258    -9.07944
   536   1     1.39000    -5.61762     9.07944
   537   1     5.56000    -1.60503    -9.07944
   538   1     6.95000     8.82769     2.26986
   539   1    -4.17000    10.43272    -2.26986
   540   1   -11.12000     1.60503     2.26986
   541   1    -6.95000    -8.82769    -2.26986
   542   1     4.17000   -10.43272     2.26986
   543   1    11.12000    -1.60503    -2.26986
   544   1     5.56000     8.02517     4.53972
   545   1    -4.17000     8.82769    -4.53972
   546   1    -9.73000     0.80252     4.53972
   547   1    -5.56000    -8.02517    -4.53972
   548   1     4.17000    -8.82769     4.53972
   549   1     9.73000    -0.80252    -4.53972
   550   1     4.17000     7.22265     6.80958
   551   1    -4.17000     7.22265    -6.80958
   552   1    -8.34000     0.00000     6.80958
   553   1    -4.17000    -7.22265    -6.80958
   554   1     4.17000    -7.22265     6.80958
   555   1     8.34000     0.00000    -6.80958
   556   1     2.78000     6.42013     9.07944
   557   1    -4.17000     5.61762    -9.07944
   558   1    -6.95000    -0.80252     9.07944
   559   1    -2.78000    -6.42013    -9.07944
   560   1     4.17000    -5.61762     9.07944
   561   1     6.95000     0.80252    -9.07944
   562   1    13.90000     4.81510    -0.00000
   563   1    13.90000    -1.60503     4.53972
   564   1    13.90000     1.60503    -4.53972
   565   1     2.78000    14.44530    -0.00000
   566   1     5.56000    12.84027     4.53972
   567   1     8.34000    11.23524    -4.53972
   568   1   -11.12000     9.63020    -0.00000
   569   1    -5.56000    12.84027     4.53972
   570   1    -8.34000    11.23524    -4.53972
   571   1   -13.90000    -4.81510    -0.00000
   572   1   -13.90000    -1.60503     4.53972
   573   1   -13.90000     1.60503    -4.53972
   574   1    -2.78000   -14.44530    -0.00000
   575   1    -8.34000   -11.23524     4.53972
   576   1    -5.56000   -12.84027    -4.53972
   577   1    11.12000    -9.63020    -0.00000
   578   1     8.34000   -11.23524     4.53972
   579   1     5.56000   -12.84027    -4.53972
   580   1     5.56000     0.00000    13.61916
   581   1     2.78000    -4.81510    13.61916
   582   1    -2.78000     4.81510    13.61916
   583   1     2.78000    -4.81510   -13.61916
   584   1    -2.78000    -4.81510   -13.61916
   585   1     2.78000     4.81510   -13.61916
   586   1    12.51000     7.22265    -0.00000
   587   1    12.51000    -2.40755     6.80958
   588   1    12.51000     2.40755    -6.80958
   589   1     0.00000    14.44530    -0.00000
   590   1     4.17000    12.03775     6.80958
   591   1     8.34000     9.63020    -6.80958
   592   1   -12.51000     7.22265    -0.00000
   593   1    -4.17000    12.03775     6.80958
   594   1    -8.34000     9.63020    -6.80958
   595   1   -12.51000    -7.22265    -0.00000
   596   1   -12.51000    -2.40755     6.80958
   597   1   -12.51000     2.40755    -6.80958
   598   1     0.00000   -14.44530    -0.00000
   599   1    -8.34000    -9.63020     6.80958
   600   1    -4.17000   -12.03775    -6.80958
   601   1    12.51000    -7.22265    -0.00000
   602   1     8.34000    -9.63020     6.80958
   603   1     4.17000   -12.03775    -6.80958
   604   1     4.17000     2.40755    13.61916
   605   1     0.00000    -4.81510    13.61916
   606   1    -4.17000     2.40755    13.61916
   607   1     4.17000    -2.40755   -13.61916
   608   1    -4.17000    -2.40755   -13.61916
   609   1     0.00000     4.81510   -13.61916
   610   1    11.12000     9.63020    -0.00000
   611   1    11.12000    -3.21007     9.07944
   612   1    11.12000     3.21007    -9.07944
   613   1    -2.78000    14.44530    -0.00000
   614   1     2.78000    11.23524     9.07944
   615   1     8.34000     8.02517    -9.07944
   616   1   -13.90000     4.81510    -0.00000
   617   1    -2.78000    11.23524     9.07944
   618   1    -8.34000     8.02517    -9.07944
   619   1   -11.12000    -9.63020    -0.00000
   620   1   -11.12000    -3.21007     9.07944
   621   1   -11.12000     3.21007    -9.07944
   622   1     2.78000   -14.44530    -0.00000
   623   1    -8.34000    -8.02517     9.07944
   624   1    -2.78000   -11.23524    -9.07944
   625   1    13.90000    -4.81510    -0.00000
   626   1     8.34000    -8.02517     9.07944
   627   1     2.78000   -11.23524    -9.07944
   628   1     2.78000     4.81510    13.61916
   629   1    -2.78000    -4.81510    13.61916
   630   1    -5.56000     0.00000    13.61916
   631   1     5.56000     0.00000   -13.61916
   632   1    -5.56000     0.00000   -13.61916
   633   1    -2.78000     4.81510   -13.61916
   634   1    13.90000     3.21007    -2.26986