LAMMPS DATA FOR MEAM SIMULATION

    869   atoms
      3   atom types

  -24.45   24.45   xlo xhi
  -24.45   24.45   ylo yhi
  -24.45   24.45   zlo zhi

 Atoms

     1   1    -3.21007    -6.42013   -12.84027
     2   1     0.00000    -6.42013   -12.84027
     3   1     3.21007    -6.42013   -12.84027
     4   1    -6.42013    -3.21007   -12.84027
     5   1    -3.21007    -3.21007   -12.84027
     6   1     0.00000    -3.21007   -12.84027
     7   1     3.21007    -3.21007   -12.84027
     8   1     6.42013    -3.21007   -12.84027
     9   1    -6.42013     0.00000   -12.84027
    10   1    -3.21007     0.00000   -12.84027
    11   1     0.00000     0.00000   -12.84027
    12   1     3.21007     0.00000   -12.84027
    13   1     6.42013     0.00000   -12.84027
    14   1    -6.42013     3.21007   -12.84027
    15   1    -3.21007     3.21007   -12.84027
    16   1     0.00000     3.21007   -12.84027
    17   1     3.21007     3.21007   -12.84027
    18   1     6.42013     3.21007   -12.84027
    19   1    -3.21007     6.42013   -12.84027
    20   1     0.00000     6.42013   -12.84027
    21   1     3.21007     6.42013   -12.84027
    22   1    -3.21007    -9.63020    -9.63020
    23   1     0.00000    -9.63020    -9.63020
    24   1     3.21007    -9.63020    -9.63020
    25   1    -6.42013    -6.42013    -9.63020
    26   1    -3.21007    -6.42013    -9.63020
    27   1     0.00000    -6.42013    -9.63020
    28   1     3.21007    -6.42013    -9.63020
    29   1     6.42013    -6.42013    -9.63020
    30   1    -9.63020    -3.21007    -9.63020
    31   1    -6.42013    -3.21007    -9.63020
    32   1    -3.21007    -3.21007    -9.63020
    33   1     0.00000    -3.21007    -9.63020
    34   1     3.21007    -3.21007    -9.63020
    35   1     6.42013    -3.21007    -9.63020
    36   1     9.63020    -3.21007    -9.63020
    37   1    -9.63020     0.00000    -9.63020
    38   1    -6.42013     0.00000    -9.63020
    39   1    -3.21007     0.00000    -9.63020
    40   1     0.00000     0.00000    -9.63020
    41   1     3.21007     0.00000    -9.63020
    42   1     6.42013     0.00000    -9.63020
    43   1     9.63020     0.00000    -9.63020
    44   1    -9.63020     3.21007    -9.63020
    45   1    -6.42013     3.21007    -9.63020
    46   1    -3.21007     3.21007    -9.63020
    47   1     0.00000     3.21007    -9.63020
    48   1     3.21007     3.21007    -9.63020
    49   1     6.42013     3.21007    -9.63020
    50   1     9.63020     3.21007    -9.63020
    51   1    -6.42013     6.42013    -9.63020
    52   1    -3.21007     6.42013    -9.63020
    53   1     0.00000     6.42013    -9.63020
    54   1     3.21007     6.42013    -9.63020
    55   1     6.42013     6.42013    -9.63020
    56   1    -3.21007     9.63020    -9.63020
    57   1     0.00000     9.63020    -9.63020
    58   1     3.21007     9.63020    -9.63020
    59   1    -3.21007   -12.84027    -6.42013
    60   1     0.00000   -12.84027    -6.42013
    61   1     3.21007   -12.84027    -6.42013
    62   1    -6.42013    -9.63020    -6.42013
    63   1    -3.21007    -9.63020    -6.42013
    64   1     0.00000    -9.63020    -6.42013
    65   1     3.21007    -9.63020    -6.42013
    66   1     6.42013    -9.63020    -6.42013
    67   1    -9.63020    -6.42013    -6.42013
    68   1    -6.42013    -6.42013    -6.42013
    69   1    -3.21007    -6.42013    -6.42013
    70   1     0.00000    -6.42013    -6.42013
    71   1     3.21007    -6.42013    -6.42013
    72   1     6.42013    -6.42013    -6.42013
    73   1     9.63020    -6.42013    -6.42013
    74   1   -12.84027    -3.21007    -6.42013
    75   1    -9.63020    -3.21007    -6.42013
    76   1    -6.42013    -3.21007    -6.42013
    77   1    -3.21007    -3.21007    -6.42013
    78   1     0.00000    -3.21007    -6.42013
    79   1     3.21007    -3.21007    -6.42013
    80   1     6.42013    -3.21007    -6.42013
    81   1     9.63020    -3.21007    -6.42013
    82   1    12.84027    -3.21007    -6.42013
    83   1   -12.84027     0.00000    -6.42013
    84   1    -9.63020     0.00000    -6.42013
    85   1    -6.42013     0.00000    -6.42013
    86   1    -3.21007     0.00000    -6.42013
    87   1     0.00000     0.00000    -6.42013
    88   1     3.21007     0.00000    -6.42013
    89   1     6.42013     0.00000    -6.42013
    90   1     9.63020     0.00000    -6.42013
    91   1    12.84027     0.00000    -6.42013
    92   1   -12.84027     3.21007    -6.42013
    93   1    -9.63020     3.21007    -6.42013
    94   1    -6.42013     3.21007    -6.42013
    95   1    -3.21007     3.21007    -6.42013
    96   1     0.00000     3.21007    -6.42013
    97   1     3.21007     3.21007    -6.42013
    98   1     6.42013     3.21007    -6.42013
    99   1     9.63020     3.21007    -6.42013
   100   1    12.84027     3.21007    -6.42013
   101   1    -9.63020     6.42013    -6.42013
   102   1    -6.42013     6.42013    -6.42013
   103   1    -3.21007     6.42013    -6.42013
   104   1     0.00000     6.42013    -6.42013
   105   1     3.21007     6.42013    -6.42013
   106   1     6.42013     6.42013    -6.42013
   107   1     9.63020     6.42013    -6.42013
   108   1    -6.42013     9.63020    -6.42013
   109   1    -3.21007     9.63020    -6.42013
   110   1     0.00000     9.63020    -6.42013
   111   1     3.21007     9.63020    -6.42013
   112   1     6.42013     9.63020    -6.42013
   113   1    -3.21007    12.84027    -6.42013
   114   1     0.00000    12.84027    -6.42013
   115   1     3.21007    12.84027    -6.42013
   116   1    -6.42013   -12.84027    -3.21007
   117   1    -3.21007   -12.84027    -3.21007
   118   1     0.00000   -12.84027    -3.21007
   119   1     3.21007   -12.84027    -3.21007
   120   1     6.42013   -12.84027    -3.21007
   121   1    -9.63020    -9.63020    -3.21007
   122   1    -6.42013    -9.63020    -3.21007
   123   1    -3.21007    -9.63020    -3.21007
   124   1     0.00000    -9.63020    -3.21007
   125   1     3.21007    -9.63020    -3.21007
   126   1     6.42013    -9.63020    -3.21007
   127   1     9.63020    -9.63020    -3.21007
   128   1   -12.84027    -6.42013    -3.21007
   129   1    -9.63020    -6.42013    -3.21007
   130   1    -6.42013    -6.42013    -3.21007
   131   1    -3.21007    -6.42013    -3.21007
   132   1     0.00000    -6.42013    -3.21007
   133   1     3.21007    -6.42013    -3.21007
   134   1     6.42013    -6.42013    -3.21007
   135   1     9.63020    -6.42013    -3.21007
   136   1    12.84027    -6.42013    -3.21007
   137   1   -12.84027    -3.21007    -3.21007
   138   1    -9.63020    -3.21007    -3.21007
   139   1    -6.42013    -3.21007    -3.21007
   140   1    -3.21007    -3.21007    -3.21007
   141   1     0.00000    -3.21007    -3.21007
   142   1     3.21007    -3.21007    -3.21007
   143   1     6.42013    -3.21007    -3.21007
   144   1     9.63020    -3.21007    -3.21007
   145   1    12.84027    -3.21007    -3.21007
   146   1   -12.84027     0.00000    -3.21007
   147   1    -9.63020     0.00000    -3.21007
   148   1    -6.42013     0.00000    -3.21007
   149   1    -3.21007     0.00000    -3.21007
   150   1     0.00000     0.00000    -3.21007
   151   1     3.21007     0.00000    -3.21007
   152   1     6.42013     0.00000    -3.21007
   153   1     9.63020     0.00000    -3.21007
   154   1    12.84027     0.00000    -3.21007
   155   1   -12.84027     3.21007    -3.21007
   156   1    -9.63020     3.21007    -3.21007
   157   1    -6.42013     3.21007    -3.21007
   158   1    -3.21007     3.21007    -3.21007
   159   1     0.00000     3.21007    -3.21007
   160   1     3.21007     3.21007    -3.21007
   161   1     6.42013     3.21007    -3.21007
   162   1     9.63020     3.21007    -3.21007
   163   1    12.84027     3.21007    -3.21007
   164   1   -12.84027     6.42013    -3.21007
   165   1    -9.63020     6.42013    -3.21007
   166   1    -6.42013     6.42013    -3.21007
   167   1    -3.21007     6.42013    -3.21007
   168   1     0.00000     6.42013    -3.21007
   169   1     3.21007     6.42013    -3.21007
   170   1     6.42013     6.42013    -3.21007
   171   1     9.63020     6.42013    -3.21007
   172   1    12.84027     6.42013    -3.21007
   173   1    -9.63020     9.63020    -3.21007
   174   1    -6.42013     9.63020    -3.21007
   175   1    -3.21007     9.63020    -3.21007
   176   1     0.00000     9.63020    -3.21007
   177   1     3.21007     9.63020    -3.21007
   178   1     6.42013     9.63020    -3.21007
   179   1     9.63020     9.63020    -3.21007
   180   1    -6.42013    12.84027    -3.21007
   181   1    -3.21007    12.84027    -3.21007
   182   1     0.00000    12.84027    -3.21007
   183   1     3.21007    12.84027    -3.21007
   184   1     6.42013    12.84027    -3.21007
   185   1    -6.42013   -12.84027     0.00000
   186   1    -3.21007   -12.84027     0.00000
   187   1     0.00000   -12.84027     0.00000
   188   1     3.21007   -12.84027     0.00000
   189   1     6.42013   -12.84027     0.00000
   190   1    -9.63020    -9.63020     0.00000
   191   1    -6.42013    -9.63020     0.00000
   192   1    -3.21007    -9.63020     0.00000
   193   1     0.00000    -9.63020     0.00000
   194   1     3.21007    -9.63020     0.00000
   195   1     6.42013    -9.63020     0.00000
   196   1     9.63020    -9.63020     0.00000
   197   1   -12.84027    -6.42013     0.00000
   198   1    -9.63020    -6.42013     0.00000
   199   1    -6.42013    -6.42013     0.00000
   200   1    -3.21007    -6.42013     0.00000
   201   1     0.00000    -6.42013     0.00000
   202   1     3.21007    -6.42013     0.00000
   203   1     6.42013    -6.42013     0.00000
   204   1     9.63020    -6.42013     0.00000
   205   1    12.84027    -6.42013     0.00000
   206   1   -12.84027    -3.21007     0.00000
   207   1    -9.63020    -3.21007     0.00000
   208   1    -6.42013    -3.21007     0.00000
   209   1    -3.21007    -3.21007     0.00000
   210   1     0.00000    -3.21007     0.00000
   211   1     3.21007    -3.21007     0.00000
   212   1     6.42013    -3.21007     0.00000
   213   1     9.63020    -3.21007     0.00000
   214   1    12.84027    -3.21007     0.00000
   215   1   -12.84027     0.00000     0.00000
   216   1    -9.63020     0.00000     0.00000
   217   1    -6.42013     0.00000     0.00000
   218   1    -3.21007     0.00000     0.00000
   219   1     0.00000     0.00000     0.00000
   220   1     3.21007     0.00000     0.00000
   221   1     6.42013     0.00000     0.00000
   222   1     9.63020     0.00000     0.00000
   223   1    12.84027     0.00000     0.00000
   224   1   -12.84027     3.21007     0.00000
   225   1    -9.63020     3.21007     0.00000
   226   1    -6.42013     3.21007     0.00000
   227   1    -3.21007     3.21007     0.00000
   228   1     0.00000     3.21007     0.00000
   229   1     3.21007     3.21007     0.00000
   230   1     6.42013     3.21007     0.00000
   231   1     9.63020     3.21007     0.00000
   232   1    12.84027     3.21007     0.00000
   233   1   -12.84027     6.42013     0.00000
   234   1    -9.63020     6.42013     0.00000
   235   1    -6.42013     6.42013     0.00000
   236   1    -3.21007     6.42013     0.00000
   237   1     0.00000     6.42013     0.00000
   238   1     3.21007     6.42013     0.00000
   239   1     6.42013     6.42013     0.00000
   240   1     9.63020     6.42013     0.00000
   241   1    12.84027     6.42013     0.00000
   242   1    -9.63020     9.63020     0.00000
   243   1    -6.42013     9.63020     0.00000
   244   1    -3.21007     9.63020     0.00000
   245   1     0.00000     9.63020     0.00000
   246   1     3.21007     9.63020     0.00000
   247   1     6.42013     9.63020     0.00000
   248   1     9.63020     9.63020     0.00000
   249   1    -6.42013    12.84027     0.00000
   250   1    -3.21007    12.84027     0.00000
   251   1     0.00000    12.84027     0.00000
   252   1     3.21007    12.84027     0.00000
   253   1     6.42013    12.84027     0.00000
   254   1    -6.42013   -12.84027     3.21007
   255   1    -3.21007   -12.84027     3.21007
   256   1     0.00000   -12.84027     3.21007
   257   1     3.21007   -12.84027     3.21007
   258   1     6.42013   -12.84027     3.21007
   259   1    -9.63020    -9.63020     3.21007
   260   1    -6.42013    -9.63020     3.21007
   261   1    -3.21007    -9.63020     3.21007
   262   1     0.00000    -9.63020     3.21007
   263   1     3.21007    -9.63020     3.21007
   264   1     6.42013    -9.63020     3.21007
   265   1     9.63020    -9.63020     3.21007
   266   1   -12.84027    -6.42013     3.21007
   267   1    -9.63020    -6.42013     3.21007
   268   1    -6.42013    -6.42013     3.21007
   269   1    -3.21007    -6.42013     3.21007
   270   1     0.00000    -6.42013     3.21007
   271   1     3.21007    -6.42013     3.21007
   272   1     6.42013    -6.42013     3.21007
   273   1     9.63020    -6.42013     3.21007
   274   1    12.84027    -6.42013     3.21007
   275   1   -12.84027    -3.21007     3.21007
   276   1    -9.63020    -3.21007     3.21007
   277   1    -6.42013    -3.21007     3.21007
   278   1    -3.21007    -3.21007     3.21007
   279   1     0.00000    -3.21007     3.21007
   280   1     3.21007    -3.21007     3.21007
   281   1     6.42013    -3.21007     3.21007
   282   1     9.63020    -3.21007     3.21007
   283   1    12.84027    -3.21007     3.21007
   284   1   -12.84027     0.00000     3.21007
   285   1    -9.63020     0.00000     3.21007
   286   1    -6.42013     0.00000     3.21007
   287   1    -3.21007     0.00000     3.21007
   288   1     0.00000     0.00000     3.21007
   289   1     3.21007     0.00000     3.21007
   290   1     6.42013     0.00000     3.21007
   291   1     9.63020     0.00000     3.21007
   292   1    12.84027     0.00000     3.21007
   293   1   -12.84027     3.21007     3.21007
   294   1    -9.63020     3.21007     3.21007
   295   1    -6.42013     3.21007     3.21007
   296   1    -3.21007     3.21007     3.21007
   297   1     0.00000     3.21007     3.21007
   298   1     3.21007     3.21007     3.21007
   299   1     6.42013     3.21007     3.21007
   300   1     9.63020     3.21007     3.21007
   301   1    12.84027     3.21007     3.21007
   302   1   -12.84027     6.42013     3.21007
   303   1    -9.63020     6.42013     3.21007
   304   1    -6.42013     6.42013     3.21007
   305   1    -3.21007     6.42013     3.21007
   306   1     0.00000     6.42013     3.21007
   307   1     3.21007     6.42013     3.21007
   308   1     6.42013     6.42013     3.21007
   309   1     9.63020     6.42013     3.21007
   310   1    12.84027     6.42013     3.21007
   311   1    -9.63020     9.63020     3.21007
   312   1    -6.42013     9.63020     3.21007
   313   1    -3.21007     9.63020     3.21007
   314   1     0.00000     9.63020     3.21007
   315   1     3.21007     9.63020     3.21007
   316   1     6.42013     9.63020     3.21007
   317   1     9.63020     9.63020     3.21007
   318   1    -6.42013    12.84027     3.21007
   319   1    -3.21007    12.84027     3.21007
   320   1     0.00000    12.84027     3.21007
   321   1     3.21007    12.84027     3.21007
   322   1     6.42013    12.84027     3.21007
   323   1    -3.21007   -12.84027     6.42013
   324   1     0.00000   -12.84027     6.42013
   325   1     3.21007   -12.84027     6.42013
   326   1    -6.42013    -9.63020     6.42013
   327   1    -3.21007    -9.63020     6.42013
   328   1     0.00000    -9.63020     6.42013
   329   1     3.21007    -9.63020     6.42013
   330   1     6.42013    -9.63020     6.42013
   331   1    -9.63020    -6.42013     6.42013
   332   1    -6.42013    -6.42013     6.42013
   333   1    -3.21007    -6.42013     6.42013
   334   1     0.00000    -6.42013     6.42013
   335   1     3.21007    -6.42013     6.42013
   336   1     6.42013    -6.42013     6.42013
   337   1     9.63020    -6.42013     6.42013
   338   1   -12.84027    -3.21007     6.42013
   339   1    -9.63020    -3.21007     6.42013
   340   1    -6.42013    -3.21007     6.42013
   341   1    -3.21007    -3.21007     6.42013
   342   1     0.00000    -3.21007     6.42013
   343   1     3.21007    -3.21007     6.42013
   344   1     6.42013    -3.21007     6.42013
   345   1     9.63020    -3.21007     6.42013
   346   1    12.84027    -3.21007     6.42013
   347   1   -12.84027     0.00000     6.42013
   348   1    -9.63020     0.00000     6.42013
   349   1    -6.42013     0.00000     6.42013
   350   1    -3.21007     0.00000     6.42013
   351   1     0.00000     0.00000     6.42013
   352   1     3.21007     0.00000     6.42013
   353   1     6.42013     0.00000     6.42013
   354   1     9.63020     0.00000     6.42013
   355   1    12.84027     0.00000     6.42013
   356   1   -12.84027     3.21007     6.42013
   357   1    -9.63020     3.21007     6.42013
   358   1    -6.42013     3.21007     6.42013
   359   1    -3.21007     3.21007     6.42013
   360   1     0.00000     3.21007     6.42013
   361   1     3.21007     3.21007     6.42013
   362   1     6.42013     3.21007     6.42013
   363   1     9.63020     3.21007     6.42013
   364   1    12.84027     3.21007     6.42013
   365   1    -9.63020     6.42013     6.42013
   366   1    -6.42013     6.42013     6.42013
   367   1    -3.21007     6.42013     6.42013
   368   1     0.00000     6.42013     6.42013
   369   1     3.21007     6.42013     6.42013
   370   1     6.42013     6.42013     6.42013
   371   1     9.63020     6.42013     6.42013
   372   1    -6.42013     9.63020     6.42013
   373   1    -3.21007     9.63020     6.42013
   374   1     0.00000     9.63020     6.42013
   375   1     3.21007     9.63020     6.42013
   376   1     6.42013     9.63020     6.42013
   377   1    -3.21007    12.84027     6.42013
   378   1     0.00000    12.84027     6.42013
   379   1     3.21007    12.84027     6.42013
   380   1    -3.21007    -9.63020     9.63020
   381   1     0.00000    -9.63020     9.63020
   382   1     3.21007    -9.63020     9.63020
   383   1    -6.42013    -6.42013     9.63020
   384   1    -3.21007    -6.42013     9.63020
   385   1     0.00000    -6.42013     9.63020
   386   1     3.21007    -6.42013     9.63020
   387   1     6.42013    -6.42013     9.63020
   388   1    -9.63020    -3.21007     9.63020
   389   1    -6.42013    -3.21007     9.63020
   390   1    -3.21007    -3.21007     9.63020
   391   1     0.00000    -3.21007     9.63020
   392   1     3.21007    -3.21007     9.63020
   393   1     6.42013    -3.21007     9.63020
   394   1     9.63020    -3.21007     9.63020
   395   1    -9.63020     0.00000     9.63020
   396   1    -6.42013     0.00000     9.63020
   397   1    -3.21007     0.00000     9.63020
   398   1     0.00000     0.00000     9.63020
   399   1     3.21007     0.00000     9.63020
   400   1     6.42013     0.00000     9.63020
   401   1     9.63020     0.00000     9.63020
   402   1    -9.63020     3.21007     9.63020
   403   1    -6.42013     3.21007     9.63020
   404   1    -3.21007     3.21007     9.63020
   405   1     0.00000     3.21007     9.63020
   406   1     3.21007     3.21007     9.63020
   407   1     6.42013     3.21007     9.63020
   408   1     9.63020     3.21007     9.63020
   409   1    -6.42013     6.42013     9.63020
   410   1    -3.21007     6.42013     9.63020
   411   1     0.00000     6.42013     9.63020
   412   1     3.21007     6.42013     9.63020
   413   1     6.42013     6.42013     9.63020
   414   1    -3.21007     9.63020     9.63020
   415   1     0.00000     9.63020     9.63020
   416   1     3.21007     9.63020     9.63020
   417   1    -3.21007    -6.42013    12.84027
   418   1     0.00000    -6.42013    12.84027
   419   1     3.21007    -6.42013    12.84027
   420   1    -6.42013    -3.21007    12.84027
   421   1    -3.21007    -3.21007    12.84027
   422   1     0.00000    -3.21007    12.84027
   423   1     3.21007    -3.21007    12.84027
   424   1     6.42013    -3.21007    12.84027
   425   1    -6.42013     0.00000    12.84027
   426   1    -3.21007     0.00000    12.84027
   427   1     0.00000     0.00000    12.84027
   428   1     3.21007     0.00000    12.84027
   429   1     6.42013     0.00000    12.84027
   430   1    -6.42013     3.21007    12.84027
   431   1    -3.21007     3.21007    12.84027
   432   1     0.00000     3.21007    12.84027
   433   1     3.21007     3.21007    12.84027
   434   1     6.42013     3.21007    12.84027
   435   1    -3.21007     6.42013    12.84027
   436   1     0.00000     6.42013    12.84027
   437   1     3.21007     6.42013    12.84027
   438   1    -1.60503    -1.60503   -14.44530
   439   1     1.60503    -1.60503   -14.44530
   440   1    -1.60503     1.60503   -14.44530
   441   1     1.60503     1.60503   -14.44530
   442   1    -4.81510    -8.02517   -11.23524
   443   1    -1.60503    -8.02517   -11.23524
   444   1     1.60503    -8.02517   -11.23524
   445   1     4.81510    -8.02517   -11.23524
   446   1    -8.02517    -4.81510   -11.23524
   447   1    -4.81510    -4.81510   -11.23524
   448   1    -1.60503    -4.81510   -11.23524
   449   1     1.60503    -4.81510   -11.23524
   450   1     4.81510    -4.81510   -11.23524
   451   1     8.02517    -4.81510   -11.23524
   452   1    -8.02517    -1.60503   -11.23524
   453   1    -4.81510    -1.60503   -11.23524
   454   1    -1.60503    -1.60503   -11.23524
   455   1     1.60503    -1.60503   -11.23524
   456   1     4.81510    -1.60503   -11.23524
   457   1     8.02517    -1.60503   -11.23524
   458   1    -8.02517     1.60503   -11.23524
   459   1    -4.81510     1.60503   -11.23524
   460   1    -1.60503     1.60503   -11.23524
   461   1     1.60503     1.60503   -11.23524
   462   1     4.81510     1.60503   -11.23524
   463   1     8.02517     1.60503   -11.23524
   464   1    -8.02517     4.81510   -11.23524
   465   1    -4.81510     4.81510   -11.23524
   466   1    -1.60503     4.81510   -11.23524
   467   1     1.60503     4.81510   -11.23524
   468   1     4.81510     4.81510   -11.23524
   469   1     8.02517     4.81510   -11.23524
   470   1    -4.81510     8.02517   -11.23524
   471   1    -1.60503     8.02517   -11.23524
   472   1     1.60503     8.02517   -11.23524
   473   1     4.81510     8.02517   -11.23524
   474   1    -4.81510   -11.23524    -8.02517
   475   1    -1.60503   -11.23524    -8.02517
   476   1     1.60503   -11.23524    -8.02517
   477   1     4.81510   -11.23524    -8.02517
   478   1    -8.02517    -8.02517    -8.02517
   479   1    -4.81510    -8.02517    -8.02517
   480   1    -1.60503    -8.02517    -8.02517
   481   1     1.60503    -8.02517    -8.02517
   482   1     4.81510    -8.02517    -8.02517
   483   1     8.02517    -8.02517    -8.02517
   484   1   -11.23524    -4.81510    -8.02517
   485   1    -8.02517    -4.81510    -8.02517
   486   1    -4.81510    -4.81510    -8.02517
   487   1    -1.60503    -4.81510    -8.02517
   488   1     1.60503    -4.81510    -8.02517
   489   1     4.81510    -4.81510    -8.02517
   490   1     8.02517    -4.81510    -8.02517
   491   1    11.23524    -4.81510    -8.02517
   492   1   -11.23524    -1.60503    -8.02517
   493   1    -8.02517    -1.60503    -8.02517
   494   1    -4.81510    -1.60503    -8.02517
   495   1    -1.60503    -1.60503    -8.02517
   496   1     1.60503    -1.60503    -8.02517
   497   1     4.81510    -1.60503    -8.02517
   498   1     8.02517    -1.60503    -8.02517
   499   1    11.23524    -1.60503    -8.02517
   500   1   -11.23524     1.60503    -8.02517
   501   1    -8.02517     1.60503    -8.02517
   502   1    -4.81510     1.60503    -8.02517
   503   1    -1.60503     1.60503    -8.02517
   504   1     1.60503     1.60503    -8.02517
   505   1     4.81510     1.60503    -8.02517
   506   1     8.02517     1.60503    -8.02517
   507   1    11.23524     1.60503    -8.02517
   508   1   -11.23524     4.81510    -8.02517
   509   1    -8.02517     4.81510    -8.02517
   510   1    -4.81510     4.81510    -8.02517
   511   1    -1.60503     4.81510    -8.02517
   512   1     1.60503     4.81510    -8.02517
   513   1     4.81510     4.81510    -8.02517
   514   1     8.02517     4.81510    -8.02517
   515   1    11.23524     4.81510    -8.02517
   516   1    -8.02517     8.02517    -8.02517
   517   1    -4.81510     8.02517    -8.02517
   518   1    -1.60503     8.02517    -8.02517
   519   1     1.60503     8.02517    -8.02517
   520   1     4.81510     8.02517    -8.02517
   521   1     8.02517     8.02517    -8.02517
   522   1    -4.81510    11.23524    -8.02517
   523   1    -1.60503    11.23524    -8.02517
   524   1     1.60503    11.23524    -8.02517
   525   1     4.81510    11.23524    -8.02517
   526   1    -8.02517   -11.23524    -4.81510
   527   1    -4.81510   -11.23524    -4.81510
   528   1    -1.60503   -11.23524    -4.81510
   529   1     1.60503   -11.23524    -4.81510
   530   1     4.81510   -11.23524    -4.81510
   531   1     8.02517   -11.23524    -4.81510
   532   1   -11.23524    -8.02517    -4.81510
   533   1    -8.02517    -8.02517    -4.81510
   534   1    -4.81510    -8.02517    -4.81510
   535   1    -1.60503    -8.02517    -4.81510
   536   1     1.60503    -8.02517    -4.81510
   537   1     4.81510    -8.02517    -4.81510
   538   1     8.02517    -8.02517    -4.81510
   539   1    11.23524    -8.02517    -4.81510
   540   1   -11.23524    -4.81510    -4.81510
   541   1    -8.02517    -4.81510    -4.81510
   542   1    -4.81510    -4.81510    -4.81510
   543   1    -1.60503    -4.81510    -4.81510
   544   1     1.60503    -4.81510    -4.81510
   545   1     4.81510    -4.81510    -4.81510
   546   1     8.02517    -4.81510    -4.81510
   547   1    11.23524    -4.81510    -4.81510
   548   1   -11.23524    -1.60503    -4.81510
   549   1    -8.02517    -1.60503    -4.81510
   550   1    -4.81510    -1.60503    -4.81510
   551   1    -1.60503    -1.60503    -4.81510
   552   1     1.60503    -1.60503    -4.81510
   553   1     4.81510    -1.60503    -4.81510
   554   1     8.02517    -1.60503    -4.81510
   555   1    11.23524    -1.60503    -4.81510
   556   1   -11.23524     1.60503    -4.81510
   557   1    -8.02517     1.60503    -4.81510
   558   1    -4.81510     1.60503    -4.81510
   559   1    -1.60503     1.60503    -4.81510
   560   1     1.60503     1.60503    -4.81510
   561   1     4.81510     1.60503    -4.81510
   562   1     8.02517     1.60503    -4.81510
   563   1    11.23524     1.60503    -4.81510
   564   1   -11.23524     4.81510    -4.81510
   565   1    -8.02517     4.81510    -4.81510
   566   1    -4.81510     4.81510    -4.81510
   567   1    -1.60503     4.81510    -4.81510
   568   1     1.60503     4.81510    -4.81510
   569   1     4.81510     4.81510    -4.81510
   570   1     8.02517     4.81510    -4.81510
   571   1    11.23524     4.81510    -4.81510
   572   1   -11.23524     8.02517    -4.81510
   573   1    -8.02517     8.02517    -4.81510
   574   1    -4.81510     8.02517    -4.81510
   575   1    -1.60503     8.02517    -4.81510
   576   1     1.60503     8.02517    -4.81510
   577   1     4.81510     8.02517    -4.81510
   578   1     8.02517     8.02517    -4.81510
   579   1    11.23524     8.02517    -4.81510
   580   1    -8.02517    11.23524    -4.81510
   581   1    -4.81510    11.23524    -4.81510
   582   1    -1.60503    11.23524    -4.81510
   583   1     1.60503    11.23524    -4.81510
   584   1     4.81510    11.23524    -4.81510
   585   1     8.02517    11.23524    -4.81510
   586   1    -1.60503   -14.44530    -1.60503
   587   1     1.60503   -14.44530    -1.60503
   588   1    -8.02517   -11.23524    -1.60503
   589   1    -4.81510   -11.23524    -1.60503
   590   1    -1.60503   -11.23524    -1.60503
   591   1     1.60503   -11.23524    -1.60503
   592   1     4.81510   -11.23524    -1.60503
   593   1     8.02517   -11.23524    -1.60503
   594   1   -11.23524    -8.02517    -1.60503
   595   1    -8.02517    -8.02517    -1.60503
   596   1    -4.81510    -8.02517    -1.60503
   597   1    -1.60503    -8.02517    -1.60503
   598   1     1.60503    -8.02517    -1.60503
   599   1     4.81510    -8.02517    -1.60503
   600   1     8.02517    -8.02517    -1.60503
   601   1    11.23524    -8.02517    -1.60503
   602   1   -11.23524    -4.81510    -1.60503
   603   1    -8.02517    -4.81510    -1.60503
   604   1    -4.81510    -4.81510    -1.60503
   605   1    -1.60503    -4.81510    -1.60503
   606   1     1.60503    -4.81510    -1.60503
   607   1     4.81510    -4.81510    -1.60503
   608   1     8.02517    -4.81510    -1.60503
   609   1    11.23524    -4.81510    -1.60503
   610   1   -14.44530    -1.60503    -1.60503
   611   1   -11.23524    -1.60503    -1.60503
   612   1    -8.02517    -1.60503    -1.60503
   613   1    -4.81510    -1.60503    -1.60503
   614   1    -1.60503    -1.60503    -1.60503
   615   1     1.60503    -1.60503    -1.60503
   616   1     4.81510    -1.60503    -1.60503
   617   1     8.02517    -1.60503    -1.60503
   618   1    11.23524    -1.60503    -1.60503
   619   1    14.44530    -1.60503    -1.60503
   620   1   -14.44530     1.60503    -1.60503
   621   1   -11.23524     1.60503    -1.60503
   622   1    -8.02517     1.60503    -1.60503
   623   1    -4.81510     1.60503    -1.60503
   624   1    -1.60503     1.60503    -1.60503
   625   1     1.60503     1.60503    -1.60503
   626   1     4.81510     1.60503    -1.60503
   627   1     8.02517     1.60503    -1.60503
   628   1    11.23524     1.60503    -1.60503
   629   1    14.44530     1.60503    -1.60503
   630   1   -11.23524     4.81510    -1.60503
   631   1    -8.02517     4.81510    -1.60503
   632   1    -4.81510     4.81510    -1.60503
   633   1    -1.60503     4.81510    -1.60503
   634   1     1.60503     4.81510    -1.60503