LAMMPS DATA FOR MEAM SIMULATION

   3518   atoms
      3   atom types

  -33.82   33.82   xlo xhi
  -33.82   33.82   ylo yhi
  -33.82   33.82   zlo zhi

 Atoms

     1   2     0.00000     0.00000    -0.00000
     2   3     2.75000     0.00000    -0.00000
     3   2     1.37500     2.38157    -0.00000
     4   1    -2.75000     0.00000    -0.00000
     5   3    -1.37500    -2.38157    -0.00000
     6   2     1.37500    -2.38157    -0.00000
     7   2     1.37500    -0.79386     2.24537
     8   2     0.00000     1.58771     2.24537
     9   2    -1.37500    -0.79386     2.24537
    10   2     0.00000    -1.58771    -2.24537
    11   1     1.37500     0.79386    -2.24537
    12   3    -1.37500     0.79386    -2.24537
    13   1     5.50000     0.00000    -0.00000
    14   1     2.75000     4.76314    -0.00000
    15   3    -2.75000     4.76314    -0.00000
    16   2    -5.50000     0.00000    -0.00000
    17   2    -2.75000    -4.76314    -0.00000
    18   3     2.75000    -4.76314    -0.00000
    19   2     2.75000    -1.58771     4.49073
    20   2     0.00000     3.17543     4.49073
    21   2    -2.75000    -1.58771     4.49073
    22   2     0.00000    -3.17543    -4.49073
    23   3     2.75000     1.58771    -4.49073
    24   3    -2.75000     1.58771    -4.49073
    25   2     4.12500    -0.79386     2.24537
    26   3     4.12500     0.79386    -2.24537
    27   1     0.00000     4.76314    -0.00000
    28   2     2.75000     3.17543    -2.24537
    29   2    -1.37500     3.96928     2.24537
    30   1    -2.75000     3.17543    -2.24537
    31   1    -4.12500    -2.38157    -0.00000
    32   1    -4.12500    -0.79386     2.24537
    33   1    -4.12500     0.79386    -2.24537
    34   3     0.00000    -4.76314    -0.00000
    35   2    -2.75000    -3.17543     2.24537
    36   2    -1.37500    -3.96928    -2.24537
    37   3     4.12500    -2.38157    -0.00000
    38   2     2.75000    -3.17543     2.24537
    39   2     1.37500    -3.96928    -2.24537
    40   3     1.37500     0.79386     4.49073
    41   2     0.00000    -1.58771     4.49073
    42   2     1.37500    -0.79386    -4.49073
    43   2     0.00000     1.58771    -4.49073
    44   3     2.75000     1.58771     2.24537
    45   3     0.00000     3.17543    -2.24537
    46   1    -2.75000     1.58771     2.24537
    47   3    -2.75000    -1.58771    -2.24537
    48   2     0.00000    -3.17543     2.24537
    49   2     2.75000    -1.58771    -2.24537
    50   2     8.25000     0.00000    -0.00000
    51   1     4.12500     7.14471    -0.00000
    52   1    -8.25000     0.00000    -0.00000
    53   1    -4.12500    -7.14471    -0.00000
    54   3     4.12500    -7.14471    -0.00000
    55   1     4.12500    -2.38157     6.73610
    56   2     0.00000     4.76314     6.73610
    57   2    -4.12500    -2.38157     6.73610
    58   3     0.00000    -4.76314    -6.73610
    59   2     4.12500     2.38157    -6.73610
    60   3    -4.12500     2.38157    -6.73610
    61   3     6.87500     2.38157    -0.00000
    62   1     6.87500    -0.79386     2.24537
    63   3     6.87500     0.79386    -2.24537
    64   3     1.37500     7.14471    -0.00000
    65   1     2.75000     6.35085     2.24537
    66   3     4.12500     5.55700    -2.24537
    67   1    -5.50000     4.76314    -0.00000
    68   1    -4.12500     5.55700    -2.24537
    69   3    -6.87500    -2.38157    -0.00000
    70   1    -6.87500    -0.79386     2.24537
    71   1    -6.87500     0.79386    -2.24537
    72   1    -1.37500    -7.14471    -0.00000
    73   3    -4.12500    -5.55700     2.24537
    74   1    -2.75000    -6.35085    -2.24537
    75   2     5.50000    -4.76314    -0.00000
    76   2     4.12500    -5.55700     2.24537
    77   3     2.75000    -6.35085    -2.24537
    78   3     1.37500    -2.38157     6.73610
    79   2    -1.37500     2.38157     6.73610
    80   3     1.37500    -2.38157    -6.73610
    81   2    -1.37500    -2.38157    -6.73610
    82   3     1.37500     2.38157    -6.73610
    83   1     5.50000     4.76314    -0.00000
    84   2     5.50000    -1.58771     4.49073
    85   3     5.50000     1.58771    -4.49073
    86   2    -1.37500     7.14471    -0.00000
    87   3     1.37500     5.55700     4.49073
    88   1     4.12500     3.96928    -4.49073
    89   2    -6.87500     2.38157    -0.00000
    90   2    -1.37500     5.55700     4.49073
    91   2    -4.12500     3.96928    -4.49073
    92   3    -5.50000    -4.76314    -0.00000
    93   2    -5.50000    -1.58771     4.49073
    94   1    -5.50000     1.58771    -4.49073
    95   2     1.37500    -7.14471    -0.00000
    96   2    -4.12500    -3.96928     4.49073
    97   1     6.87500    -2.38157    -0.00000
    98   2     4.12500    -3.96928     4.49073
    99   1     1.37500    -5.55700    -4.49073
   100   1     1.37500     2.38157     6.73610
   101   1    -1.37500    -2.38157     6.73610
   102   2    -2.75000     0.00000     6.73610
   103   2     2.75000     0.00000    -6.73610
   104   2    -2.75000     0.00000    -6.73610
   105   2     0.00000     6.35085     2.24537
   106   2    -5.50000    -3.17543     2.24537
   107   1     0.00000    -6.35085    -2.24537
   108   2     5.50000    -3.17543     2.24537
   109   2     0.00000     0.00000     6.73610
   110   2     0.00000     0.00000    -6.73610
   111   1     5.50000     1.58771     2.24537
   112   3     1.37500     5.55700    -2.24537
   113   2    -4.12500     3.96928     2.24537
   114   1    -5.50000    -1.58771    -2.24537
   115   1    -1.37500    -5.55700     2.24537
   116   1     4.12500    -3.96928    -2.24537
   117   2     1.37500     3.96928    -4.49073
   118   2    -2.75000     3.17543     4.49073
   119   3    -4.12500    -0.79386    -4.49073
   120   2    -1.37500    -3.96928     4.49073
   121   1     2.75000    -3.17543    -4.49073
   122   2    -1.37500     5.55700    -2.24537
   123   3    -5.50000     1.58771     2.24537
   124   2    -4.12500    -3.96928    -2.24537
   125   1     1.37500    -5.55700     2.24537
   126   2     5.50000    -1.58771    -2.24537
   127   1    -1.37500     3.96928    -4.49073
   128   1    -4.12500     0.79386     4.49073
   129   2    -2.75000    -3.17543    -4.49073
   130   2     1.37500    -3.96928     4.49073
   131   1     4.12500    -0.79386    -4.49073
   132   2    11.00000     0.00000    -0.00000
   133   3     5.50000     9.52628    -0.00000
   134   1    -5.50000     9.52628    -0.00000
   135   2   -11.00000     0.00000    -0.00000
   136   1    -5.50000    -9.52628    -0.00000
   137   1     5.50000    -9.52628    -0.00000
   138   1     5.50000    -3.17543     8.98146
   139   2     0.00000     6.35085     8.98146
   140   2    -5.50000    -3.17543     8.98146
   141   2     0.00000    -6.35085    -8.98146
   142   3     5.50000     3.17543    -8.98146
   143   1    -5.50000     3.17543    -8.98146
   144   3     9.62500     2.38157    -0.00000
   145   2     9.62500    -0.79386     2.24537
   146   2     9.62500     0.79386    -2.24537
   147   1     2.75000     9.52628    -0.00000
   148   1     4.12500     8.73242     2.24537
   149   2     5.50000     7.93857    -2.24537
   150   2    -6.87500     7.14471    -0.00000
   151   1    -4.12500     8.73242     2.24537
   152   1    -5.50000     7.93857    -2.24537
   153   1    -9.62500    -2.38157    -0.00000
   154   2    -9.62500    -0.79386     2.24537
   155   3    -2.75000    -9.52628    -0.00000
   156   2    -5.50000    -7.93857     2.24537
   157   3    -4.12500    -8.73242    -2.24537
   158   1     6.87500    -7.14471    -0.00000
   159   3     5.50000    -7.93857     2.24537
   160   2     4.12500    -0.79386     8.98146
   161   3     2.75000    -3.17543     8.98146
   162   2    -1.37500     3.96928     8.98146
   163   2     1.37500    -3.96928    -8.98146
   164   1    -1.37500    -3.96928    -8.98146
   165   2     2.75000     3.17543    -8.98146
   166   2     8.25000     4.76314    -0.00000
   167   1     8.25000    -1.58771     4.49073
   168   3     8.25000     1.58771    -4.49073
   169   2     0.00000     9.52628    -0.00000
   170   1     2.75000     7.93857     4.49073
   171   2     5.50000     6.35085    -4.49073
   172   3    -8.25000     4.76314    -0.00000
   173   3    -2.75000     7.93857     4.49073
   174   3    -5.50000     6.35085    -4.49073
   175   3    -8.25000    -4.76314    -0.00000
   176   3     0.00000    -9.52628    -0.00000
   177   2    -5.50000    -6.35085     4.49073
   178   2     8.25000    -4.76314    -0.00000
   179   2     5.50000    -6.35085     4.49073
   180   2     2.75000    -7.93857    -4.49073
   181   3     0.00000    -3.17543     8.98146
   182   1    -2.75000     1.58771     8.98146
   183   2     2.75000    -1.58771    -8.98146
   184   2    -2.75000    -1.58771    -8.98146
   185   2     6.87500     7.14471    -0.00000
   186   3     6.87500     2.38157    -6.73610
   187   2    -2.75000     9.52628    -0.00000
   188   1     1.37500     7.14471     6.73610
   189   2    -1.37500     7.14471     6.73610
   190   2    -6.87500    -7.14471    -0.00000
   191   3    -6.87500    -2.38157     6.73610
   192   1    -6.87500     2.38157    -6.73610
   193   3     2.75000    -9.52628    -0.00000
   194   3    -5.50000    -4.76314     6.73610
   195   3    -1.37500    -7.14471    -6.73610
   196   1     9.62500    -2.38157    -0.00000
   197   3     5.50000    -4.76314     6.73610
   198   1     1.37500    -7.14471    -6.73610
   199   3     1.37500     3.96928     8.98146
   200   2    -2.75000    -3.17543     8.98146
   201   3    -4.12500    -0.79386     8.98146
   202   1     4.12500     0.79386    -8.98146
   203   2    -4.12500     0.79386    -8.98146
   204   1    -2.75000     3.17543    -8.98146
   205   3     8.25000     3.17543    -2.24537
   206   2     1.37500     8.73242     2.24537
   207   3    -6.87500     5.55700    -2.24537
   208   2    -8.25000    -3.17543     2.24537
   209   1     1.37500    -0.79386     8.98146
   210   3     0.00000    -1.58771    -8.98146
   211   2     6.87500     3.96928    -4.49073
   212   2     0.00000     7.93857     4.49073
   213   3    -6.87500     3.96928    -4.49073
   214   2    -6.87500    -3.96928     4.49073
   215   2     0.00000    -7.93857    -4.49073
   216   3     6.87500    -3.96928     4.49073
   217   1    -1.37500    -0.79386     8.98146
   218   3     8.25000     1.58771     2.24537
   219   3     2.75000     7.93857    -2.24537
   220   3    -5.50000     6.35085     2.24537
   221   1    -8.25000    -1.58771    -2.24537
   222   2    -2.75000    -7.93857     2.24537
   223   1     5.50000    -6.35085    -2.24537
   224   3     6.87500     0.79386     4.49073
   225   2     2.75000     6.35085    -4.49073
   226   2    -4.12500     5.55700     4.49073
   227   3    -6.87500    -0.79386    -4.49073
   228   3    -2.75000    -6.35085     4.49073
   229   2     4.12500    -5.55700    -4.49073
   230   3     5.50000     0.00000     6.73610
   231   2    -2.75000     4.76314     6.73610
   232   3    -5.50000     0.00000    -6.73610
   233   2    -2.75000    -4.76314     6.73610
   234   2     2.75000    -4.76314    -6.73610
   235   1     6.87500     5.55700    -2.24537
   236   2    -1.37500     8.73242     2.24537
   237   1    -8.25000     3.17543    -2.24537
   238   2    -6.87500    -5.55700     2.24537
   239   2     1.37500    -8.73242    -2.24537
   240   1     8.25000    -3.17543     2.24537
   241   1     0.00000     1.58771     8.98146
   242   1     1.37500     0.79386    -8.98146
   243   2     6.87500     3.96928     2.24537
   244   3     0.00000     7.93857    -2.24537
   245   2    -6.87500     3.96928     2.24537
   246   3    -6.87500    -3.96928    -2.24537
   247   1     0.00000    -7.93857     2.24537
   248   3     6.87500    -3.96928    -2.24537
   249   2     5.50000     3.17543     4.49073
   250   1     0.00000     6.35085    -4.49073
   251   3    -5.50000     3.17543     4.49073
   252   3    -5.50000    -3.17543    -4.49073
   253   2     0.00000    -6.35085     4.49073
   254   1     5.50000    -3.17543    -4.49073
   255   1     4.12500     2.38157     6.73610
   256   2     0.00000     4.76314    -6.73610
   257   3    -4.12500     2.38157     6.73610
   258   2    -4.12500    -2.38157    -6.73610
   259   2     0.00000    -4.76314     6.73610
   260   1     4.12500    -2.38157    -6.73610
   261   2     5.50000     6.35085     2.24537
   262   1    -2.75000     7.93857    -2.24537
   263   2    -8.25000     1.58771     2.24537
   264   1    -5.50000    -6.35085    -2.24537
   265   2     2.75000    -7.93857     2.24537
   266   2     8.25000    -1.58771    -2.24537
   267   3    -2.75000     6.35085    -4.49073
   268   3    -6.87500     0.79386     4.49073
   269   3    -4.12500    -5.55700    -4.49073
   270   1     2.75000     4.76314     6.73610
   271   3    -2.75000     4.76314    -6.73610
   272   2    -2.75000    -4.76314    -6.73610
   273   1     2.75000    -4.76314     6.73610
   274   1     5.50000     0.00000    -6.73610
   275   1    13.75000     0.00000    -0.00000
   276   1     6.87500    11.90785    -0.00000
   277   2    -6.87500    11.90785    -0.00000
   278   2   -13.75000     0.00000    -0.00000
   279   2    -6.87500   -11.90785    -0.00000
   280   2     6.87500   -11.90785    -0.00000
   281   2     0.00000     7.93857    11.22683
   282   2    -6.87500    -3.96928    11.22683
   283   3     0.00000    -7.93857   -11.22683
   284   3     6.87500     3.96928   -11.22683
   285   3    -6.87500     3.96928   -11.22683
   286   1    12.37500    -0.79386     2.24537
   287   2    12.37500     0.79386    -2.24537
   288   2     4.12500    11.90785    -0.00000
   289   2     5.50000    11.11399     2.24537
   290   1     6.87500    10.32014    -2.24537
   291   1    -8.25000     9.52628    -0.00000
   292   3    -5.50000    11.11399     2.24537
   293   3   -12.37500    -2.38157    -0.00000
   294   3   -12.37500     0.79386    -2.24537
   295   1    -6.87500   -10.32014     2.24537
   296   1    -5.50000   -11.11399    -2.24537
   297   2     8.25000    -9.52628    -0.00000
   298   2     6.87500   -10.32014     2.24537
   299   2     5.50000   -11.11399    -2.24537
   300   3     5.50000    -1.58771    11.22683
   301   2     4.12500    -3.96928    11.22683
   302   2    -1.37500     5.55700    11.22683
   303   2     1.37500    -5.55700   -11.22683
   304   2    -1.37500    -5.55700   -11.22683
   305   3    11.00000     4.76314    -0.00000
   306   2    11.00000    -1.58771     4.49073
   307   3    11.00000     1.58771    -4.49073
   308   3     1.37500    11.90785    -0.00000
   309   2     4.12500    10.32014     4.49073
   310   2     6.87500     8.73242    -4.49073
   311   3    -9.62500     7.14471    -0.00000
   312   1    -4.12500    10.32014     4.49073
   313   1    -6.87500     8.73242    -4.49073
   314   3   -11.00000    -4.76314    -0.00000
   315   2   -11.00000    -1.58771     4.49073
   316   2   -11.00000     1.58771    -4.49073
   317   2    -1.37500   -11.90785    -0.00000
   318   2    -6.87500    -8.73242     4.49073
   319   2    -4.12500   -10.32014    -4.49073
   320   2     9.62500    -7.14471    -0.00000
   321   3     6.87500    -8.73242     4.49073
   322   3     4.12500   -10.32014    -4.49073
   323   2     4.12500     0.79386    11.22683
   324   2     1.37500    -3.96928    11.22683
   325   2     2.75000    -3.17543   -11.22683
   326   2    -2.75000    -3.17543   -11.22683
   327   2     1.37500     3.96928   -11.22683
   328   2     9.62500    -2.38157     6.73610
   329   2     9.62500     2.38157    -6.73610
   330   1    -1.37500    11.90785    -0.00000
   331   3     2.75000     9.52628     6.73610
   332   2     6.87500     7.14471    -6.73610
   333   1   -11.00000     4.76314    -0.00000
   334   2    -2.75000     9.52628     6.73610
   335   2    -9.62500    -7.14471    -0.00000
   336   3    -9.62500    -2.38157     6.73610
   337   3     1.37500   -11.90785    -0.00000
   338   3    -6.87500    -7.14471     6.73610
   339   2    -2.75000    -9.52628    -6.73610
   340   2    11.00000    -4.76314    -0.00000
   341   2     6.87500    -7.14471     6.73610
   342   1     2.75000    -9.52628    -6.73610
   343   3    -1.37500    -3.96928    11.22683
   344   1    -4.12500     0.79386    11.22683
   345   2    -4.12500    -0.79386   -11.22683
   346   2    -1.37500     3.96928   -11.22683
   347   3     8.25000     3.17543    -8.98146
   348   3    -4.12500    11.90785    -0.00000
   349   2     1.37500     8.73242     8.98146
   350   3     6.87500     5.55700    -8.98146
   351   2   -12.37500     2.38157    -0.00000
   352   1    -1.37500     8.73242     8.98146
   353   1    -6.87500     5.55700    -8.98146
   354   2    -8.25000    -9.52628    -0.00000
   355   1    -8.25000    -3.17543     8.98146
   356   3    -8.25000     3.17543    -8.98146
   357   2     4.12500   -11.90785    -0.00000
   358   3    -6.87500    -5.55700     8.98146
   359   2    -1.37500    -8.73242    -8.98146
   360   3    12.37500    -2.38157    -0.00000
   361   1     6.87500    -5.55700     8.98146
   362   2     1.37500     5.55700    11.22683
   363   1    -4.12500    -3.96928    11.22683
   364   3    -5.50000    -1.58771    11.22683
   365   3    -5.50000     1.58771   -11.22683
   366   2    -4.12500     3.96928   -11.22683
   367   3    11.00000     3.17543    -2.24537
   368   3     2.75000    11.11399     2.24537
   369   2    -8.25000     7.93857    -2.24537
   370   2   -11.00000    -3.17543     2.24537
   371   1    -2.75000   -11.11399    -2.24537
   372   2     8.25000    -7.93857     2.24537
   373   2     2.75000    -1.58771    11.22683
   374   1     0.00000    -3.17543   -11.22683
   375   2     9.62500     3.96928    -4.49073
   376   2     1.37500    10.32014     4.49073
   377   2    -8.25000     6.35085    -4.49073
   378   3    -9.62500    -3.96928     4.49073
   379   2    -1.37500   -10.32014    -4.49073
   380   3     8.25000    -6.35085     4.49073
   381   2     0.00000    -1.58771    11.22683
   382   2    -1.37500    -0.79386   -11.22683
   383   3     0.00000     9.52628     6.73610
   384   1    -8.25000     4.76314    -6.73610
   385   2    -8.25000    -4.76314     6.73610
   386   1     0.00000    -9.52628    -6.73610
   387   3     8.25000    -4.76314     6.73610
   388   2    -2.75000    -1.58771    11.22683
   389   1    -2.75000     1.58771   -11.22683
   390   1    11.00000     1.58771     2.24537
   391   2     4.12500    10.32014    -2.24537
   392   2    -6.87500     8.73242     2.24537
   393   3   -11.00000    -1.58771    -2.24537
   394   2    -4.12500   -10.32014     2.24537
   395   1     9.62500     0.79386     4.49073
   396   2     4.12500     8.73242    -4.49073
   397   1    -5.50000     7.93857     4.49073
   398   2    -9.62500    -0.79386    -4.49073
   399   2    -4.12500    -8.73242     4.49073
   400   2     5.50000    -7.93857    -4.49073
   401   1     8.25000     0.00000     6.73610
   402   1     4.12500     7.14471    -6.73610
   403   3    -4.12500     7.14471     6.73610
   404   1    -8.25000     0.00000    -6.73610
   405   2    -4.12500    -7.14471     6.73610
   406   2     4.12500    -7.14471    -6.73610
   407   3     6.87500    -0.79386     8.98146
   408   2     4.12500     5.55700    -8.98146
   409   1    -2.75000     6.35085     8.98146
   410   1    -6.87500     0.79386    -8.98146
   411   3    -4.12500    -5.55700     8.98146
   412   2     2.75000    -6.35085    -8.98146
   413   3     9.62500     5.55700    -2.24537
   414   1     0.00000    11.11399     2.24537
   415   2    -9.62500     5.55700    -2.24537
   416   3    -9.62500    -5.55700     2.24537
   417   2     0.00000   -11.11399    -2.24537
   418   1     9.62500    -5.55700     2.24537
   419   3     1.37500     0.79386    11.22683
   420   1     1.37500    -0.79386   -11.22683
   421   2     8.25000     6.35085    -4.49073
   422   3    -1.37500    10.32014     4.49073
   423   1    -9.62500     3.96928    -4.49073
   424   2     1.37500   -10.32014    -4.49073
   425   3     9.62500    -3.96928     4.49073
   426   3    -1.37500     0.79386    11.22683
   427   3     0.00000     1.58771   -11.22683
   428   1     9.62500     3.96928     2.24537
   429   3     1.37500    10.32014    -2.24537
   430   2    -8.25000     6.35085     2.24537
   431   3    -9.62500    -3.96928    -2.24537
   432   2    -1.37500   -10.32014     2.24537
   433   1     8.25000    -6.35085    -2.24537
   434   1     8.25000     3.17543     4.49073
   435   3     1.37500     8.73242    -4.49073
   436   2    -6.87500     5.55700     4.49073
   437   3    -8.25000    -3.17543    -4.49073
   438   2    -1.37500    -8.73242     4.49073
   439   3     6.87500    -5.55700    -4.49073
   440   2     6.87500     2.38157     6.73610
   441   1     1.37500     7.14471    -6.73610
   442   1    -5.50000     4.76314     6.73610
   443   1    -1.37500    -7.14471     6.73610
   444   2     5.50000    -4.76314    -6.73610
   445   2     5.50000     1.58771     8.98146
   446   3     1.37500     5.55700    -8.98146
   447   3    -4.12500     3.96928     8.98146
   448   1    -5.50000    -1.58771    -8.98146
   449   3    -1.37500    -5.55700     8.98146
   450   2     4.12500    -3.96928    -8.98146
   451   2     8.25000     7.93857    -2.24537
   452   2    -2.75000    11.11399     2.24537
   453   2   -11.00000     3.17543    -2.24537
   454   1    -8.25000    -7.93857     2.24537
   455   3     2.75000   -11.11399    -2.24537
   456   1    11.00000    -3.17543     2.24537
   457   3     0.00000     3.17543    11.22683
   458   1     2.75000     1.58771   -11.22683
   459   1     8.25000     6.35085     2.24537
   460   2    -1.37500    10.32014    -2.24537
   461   2    -9.62500     3.96928     2.24537
   462   2    -8.25000    -6.35085    -2.24537
   463   3     1.37500   -10.32014     2.24537
   464   1     9.62500    -3.96928    -2.24537
   465   2     6.87500     5.55700     4.49073
   466   1    -1.37500     8.73242    -4.49073
   467   3    -6.87500    -5.55700    -4.49073
   468   1     1.37500    -8.73242     4.49073
   469   2    -1.37500     7.14471    -6.73610
   470   2    -6.87500     2.38157     6.73610
   471   3    -5.50000    -4.76314    -6.73610
   472   2     1.37500    -7.14471     6.73610
   473   1     6.87500    -2.38157    -6.73610
   474   1     4.12500     3.96928     8.98146
   475   1    -1.37500     5.55700    -8.98146
   476   1    -5.50000     1.58771     8.98146
   477   2    -4.12500    -3.96928    -8.98146
   478   2     1.37500    -5.55700     8.98146
   479   2     5.50000    -1.58771    -8.98146
   480   2     6.87500     8.73242     2.24537
   481   2    -4.12500    10.32014    -2.24537
   482   3   -11.00000     1.58771     2.24537
   483   3    -6.87500    -8.73242    -2.24537
   484   2     4.12500   -10.32014     2.24537
   485   3    11.00000    -1.58771    -2.24537
   486   2     5.50000     7.93857     4.49073
   487   2    -4.12500     8.73242    -4.49073
   488   2    -9.62500     0.79386     4.49073
   489   3    -5.50000    -7.93857    -4.49073
   490   3     4.12500    -8.73242     4.49073
   491   3     9.62500    -0.79386    -4.49073
   492   3     4.12500     7.14471     6.73610
   493   2    -4.12500     7.14471    -6.73610
   494   3    -8.25000     0.00000     6.73610
   495   3    -4.12500    -7.14471    -6.73610
   496   2     4.12500    -7.14471     6.73610
   497   3     8.25000     0.00000    -6.73610
   498   2     2.75000     6.35085     8.98146
   499   3    -4.12500     5.55700    -8.98146
   500   1    -6.87500    -0.79386     8.98146
   501   3    -2.75000    -6.35085    -8.98146
   502   2     4.12500    -5.55700     8.98146
   503   2     6.87500     0.79386    -8.98146
   504   2    16.50000     0.00000    -0.00000
   505   1    -8.25000    14.28942    -0.00000
   506   1   -16.50000     0.00000    -0.00000
   507   1     8.25000    -4.76314    13.47219
   508   3     0.00000     9.52628    13.47219
   509   1    -8.25000    -4.76314    13.47219
   510   1     0.00000    -9.52628   -13.47219
   511   1     8.25000     4.76314   -13.47219
   512   2    -8.25000     4.76314   -13.47219
   513   2    15.12500    -0.79386     2.24537
   514   2     5.50000    14.28942    -0.00000
   515   3     6.87500    13.49556     2.24537
   516   3     8.25000    12.70171    -2.24537
   517   1    -9.62500    11.90785    -0.00000
   518   2    -6.87500    13.49556     2.24537
   519   2    -8.25000    12.70171    -2.24537
   520   2   -15.12500    -2.38157    -0.00000
   521   3   -15.12500    -0.79386     2.24537
   522   2   -15.12500     0.79386    -2.24537
   523   1    -5.50000   -14.28942    -0.00000
   524   2    -8.25000   -12.70171     2.24537
   525   1    -6.87500   -13.49556    -2.24537
   526   1     9.62500   -11.90785    -0.00000
   527   2     8.25000   -12.70171     2.24537
   528   2     6.87500   -13.49556    -2.24537
   529   2     6.87500    -2.38157    13.47219
   530   2     5.50000    -4.76314    13.47219
   531   1    -1.37500     7.14471    13.47219
   532   1     1.37500    -7.14471   -13.47219
   533   1    -1.37500    -7.14471   -13.47219
   534   1     5.50000     4.76314   -13.47219
   535   1    13.75000     1.58771    -4.49073
   536   1     2.75000    14.28942    -0.00000
   537   1     5.50000    12.70171     4.49073
   538   1     8.25000    11.11399    -4.49073
   539   2   -11.00000     9.52628    -0.00000
   540   1    -5.50000    12.70171     4.49073
   541   2    -8.25000    11.11399    -4.49073
   542   2   -13.75000    -1.58771     4.49073
   543   2   -13.75000     1.58771    -4.49073
   544   3    -2.75000   -14.28942    -0.00000
   545   2    -8.25000   -11.11399     4.49073
   546   1    -5.50000   -12.70171    -4.49073
   547   3    11.00000    -9.52628    -0.00000
   548   2     8.25000   -11.11399     4.49073
   549   2     5.50000   -12.70171    -4.49073
   550   3     5.50000     0.00000    13.47219
   551   1     2.75000    -4.76314    13.47219
   552   3    -2.75000     4.76314    13.47219
   553   1     2.75000    -4.76314   -13.47219
   554   3    -2.75000    -4.76314   -13.47219
   555   2     2.75000     4.76314   -13.47219
   556   1    12.37500     7.14471    -0.00000
   557   1    12.37500    -2.38157     6.73610
   558   2    12.37500     2.38157    -6.73610
   559   3     0.00000    14.28942    -0.00000
   560   3     4.12500    11.90785     6.73610
   561   2   -12.37500     7.14471    -0.00000
   562   2    -4.12500    11.90785     6.73610
   563   1    -8.25000     9.52628    -6.73610
   564   3   -12.37500    -7.14471    -0.00000
   565   1   -12.37500    -2.38157     6.73610
   566   2   -12.37500     2.38157    -6.73610
   567   2     0.00000   -14.28942    -0.00000
   568   3    -8.25000    -9.52628     6.73610
   569   2    -4.12500   -11.90785    -6.73610
   570   2    12.37500    -7.14471    -0.00000
   571   2     8.25000    -9.52628     6.73610
   572   3     4.12500   -11.90785    -6.73610
   573   1     4.12500     2.38157    13.47219
   574   3     0.00000    -4.76314    13.47219
   575   1    -4.12500     2.38157    13.47219
   576   1     4.12500    -2.38157   -13.47219
   577   2    -4.12500    -2.38157   -13.47219
   578   1    11.00000     9.52628    -0.00000
   579   3    11.00000    -3.17543     8.98146
   580   2    11.00000     3.17543    -8.98146
   581   2    -2.75000    14.28942    -0.00000
   582   3     2.75000    11.11399     8.98146
   583   2     8.25000     7.93857    -8.98146
   584   1   -13.75000     4.76314    -0.00000
   585   3    -2.75000    11.11399     8.98146
   586   2    -8.25000     7.93857    -8.98146
   587   2   -11.00000    -9.52628    -0.00000
   588   3   -11.00000    -3.17543     8.98146
   589   3   -11.00000     3.17543    -8.98146
   590   1     2.75000   -14.28942    -0.00000
   591   1    -8.25000    -7.93857     8.98146
   592   2    -2.75000   -11.11399    -8.98146
   593   2    13.75000    -4.76314    -0.00000
   594   1     8.25000    -7.93857     8.98146
   595   3     2.75000   -11.11399    -8.98146
   596   2     2.75000     4.76314    13.47219
   597   1    -2.75000    -4.76314    13.47219
   598   2    -5.50000     0.00000    13.47219
   599   2     5.50000     0.00000   -13.47219
   600   3    -5.50000     0.00000   -13.47219
   601   2     9.62500    11.90785    -0.00000
   602   2     9.62500     3.96928   -11.22683
   603   2    -5.50000    14.28942    -0.00000
   604   3     1.37500    10.32014    11.22683
   605   3     8.25000     6.35085   -11.22683
   606   2   -15.12500     2.38157    -0.00000
   607   2    -1.37500    10.32014    11.22683
   608   1    -8.25000     6.35085   -11.22683
   609   1    -9.62500   -11.90785    -0.00000
   610   2    -9.62500    -3.96928    11.22683
   611   3    -9.62500     3.96928   -11.22683
   612   2     5.50000   -14.28942    -0.00000
   613   3    -1.37500   -10.32014   -11.22683
   614   2    15.12500    -2.38157    -0.00000
   615   2     1.37500   -10.32014   -11.22683
   616   2     1.37500     7.14471    13.47219
   617   2    -5.50000    -4.76314    13.47219
   618   2    -6.87500    -2.38157    13.47219
   619   2     6.87500     2.38157   -13.47219
   620   1    -6.87500     2.38157   -13.47219
   621   1    -5.50000     4.76314   -13.47219
   622   1     4.12500    13.49556     2.24537
   623   2    -9.62500    10.32014    -2.24537
   624   2   -13.75000    -3.17543     2.24537
   625   2    -4.12500   -13.49556    -2.24537
   626   2     9.62500   -10.32014     2.24537
   627   1     4.12500    -2.38157    13.47219
   628   3     0.00000    -4.76314   -13.47219
   629   2    12.37500     3.96928    -4.49073
   630   1     2.75000    12.70171     4.49073
   631   2    -9.62500     8.73242    -4.49073
   632   2   -12.37500    -3.96928     4.49073
   633   3    -2.75000   -12.70171    -4.49073
   634   2     9.62500    -8.73242     4.49073