LAMMPS DATA FOR MEAM SIMULATION

   7803   atoms
      3   atom types

  -39.37   39.37   xlo xhi
  -39.37   39.37   ylo yhi
  -39.37   39.37   zlo zhi

 Atoms

     1   3     0.00000    -0.00000     0.00000
     2   1     2.75000    -0.00000     0.00000
     3   3     1.37500     2.38157     0.00000
     4   3    -1.37500     2.38157     0.00000
     5   3    -2.75000    -0.00000     0.00000
     6   2    -1.37500    -2.38157     0.00000
     7   3     1.37500    -2.38157     0.00000
     8   3     1.37500    -0.79386     2.24537
     9   1     0.00000     1.58771     2.24537
    10   2    -1.37500    -0.79386     2.24537
    11   1     0.00000    -1.58771    -2.24537
    12   2     1.37500     0.79386    -2.24537
    13   3    -1.37500     0.79386    -2.24537
    14   1     5.50000    -0.00000     0.00000
    15   2     2.75000     4.76314     0.00000
    16   3    -2.75000     4.76314     0.00000
    17   3    -5.50000    -0.00000     0.00000
    18   1    -2.75000    -4.76314     0.00000
    19   1     2.75000    -4.76314     0.00000
    20   3     2.75000    -1.58771     4.49073
    21   1     0.00000     3.17543     4.49073
    22   1    -2.75000    -1.58771     4.49073
    23   3     0.00000    -3.17543    -4.49073
    24   1     2.75000     1.58771    -4.49073
    25   2    -2.75000     1.58771    -4.49073
    26   3     4.12500     2.38157     0.00000
    27   3     4.12500    -0.79386     2.24537
    28   2     4.12500     0.79386    -2.24537
    29   1     0.00000     4.76314     0.00000
    30   1     1.37500     3.96928     2.24537
    31   1     2.75000     3.17543    -2.24537
    32   2    -4.12500     2.38157     0.00000
    33   1    -1.37500     3.96928     2.24537
    34   2    -2.75000     3.17543    -2.24537
    35   3    -4.12500    -2.38157     0.00000
    36   2    -4.12500    -0.79386     2.24537
    37   3    -4.12500     0.79386    -2.24537
    38   2     0.00000    -4.76314     0.00000
    39   1    -2.75000    -3.17543     2.24537
    40   3    -1.37500    -3.96928    -2.24537
    41   1     4.12500    -2.38157     0.00000
    42   3     2.75000    -3.17543     2.24537
    43   3     1.37500    -3.96928    -2.24537
    44   2     1.37500     0.79386     4.49073
    45   2     0.00000    -1.58771     4.49073
    46   2    -1.37500     0.79386     4.49073
    47   1     1.37500    -0.79386    -4.49073
    48   1    -1.37500    -0.79386    -4.49073
    49   1     0.00000     1.58771    -4.49073
    50   2     2.75000     1.58771     2.24537
    51   3     0.00000     3.17543    -2.24537
    52   2    -2.75000     1.58771     2.24537
    53   1    -2.75000    -1.58771    -2.24537
    54   1     0.00000    -3.17543     2.24537
    55   2     2.75000    -1.58771    -2.24537
    56   3     8.25000    -0.00000     0.00000
    57   2     4.12500     7.14471     0.00000
    58   2    -4.12500     7.14471     0.00000
    59   1    -8.25000    -0.00000     0.00000
    60   2    -4.12500    -7.14471     0.00000
    61   2     4.12500    -7.14471     0.00000
    62   2     4.12500    -2.38157     6.73610
    63   1     0.00000     4.76314     6.73610
    64   3    -4.12500    -2.38157     6.73610
    65   3     0.00000    -4.76314    -6.73610
    66   1     4.12500     2.38157    -6.73610
    67   2    -4.12500     2.38157    -6.73610
    68   2     6.87500     2.38157     0.00000
    69   3     6.87500    -0.79386     2.24537
    70   1     6.87500     0.79386    -2.24537
    71   2     1.37500     7.14471     0.00000
    72   3     2.75000     6.35085     2.24537
    73   1     4.12500     5.55700    -2.24537
    74   2    -5.50000     4.76314     0.00000
    75   1    -2.75000     6.35085     2.24537
    76   1    -4.12500     5.55700    -2.24537
    77   1    -6.87500    -2.38157     0.00000
    78   2    -6.87500    -0.79386     2.24537
    79   3    -6.87500     0.79386    -2.24537
    80   2    -1.37500    -7.14471     0.00000
    81   2    -4.12500    -5.55700     2.24537
    82   3    -2.75000    -6.35085    -2.24537
    83   1     5.50000    -4.76314     0.00000
    84   2     4.12500    -5.55700     2.24537
    85   2     2.75000    -6.35085    -2.24537
    86   1     2.75000    -0.00000     6.73610
    87   2     1.37500    -2.38157     6.73610
    88   1    -1.37500     2.38157     6.73610
    89   2     1.37500    -2.38157    -6.73610
    90   2    -1.37500    -2.38157    -6.73610
    91   2     1.37500     2.38157    -6.73610
    92   2     5.50000     4.76314     0.00000
    93   2     5.50000    -1.58771     4.49073
    94   2     5.50000     1.58771    -4.49073
    95   1    -1.37500     7.14471     0.00000
    96   3     1.37500     5.55700     4.49073
    97   3     4.12500     3.96928    -4.49073
    98   3    -6.87500     2.38157     0.00000
    99   3    -1.37500     5.55700     4.49073
   100   1    -4.12500     3.96928    -4.49073
   101   2    -5.50000    -4.76314     0.00000
   102   2    -5.50000    -1.58771     4.49073
   103   2    -5.50000     1.58771    -4.49073
   104   3     1.37500    -7.14471     0.00000
   105   2    -4.12500    -3.96928     4.49073
   106   3    -1.37500    -5.55700    -4.49073
   107   1     6.87500    -2.38157     0.00000
   108   1     4.12500    -3.96928     4.49073
   109   2     1.37500    -5.55700    -4.49073
   110   1     1.37500     2.38157     6.73610
   111   3    -1.37500    -2.38157     6.73610
   112   2    -2.75000    -0.00000     6.73610
   113   1     2.75000    -0.00000    -6.73610
   114   2    -2.75000    -0.00000    -6.73610
   115   2    -1.37500     2.38157    -6.73610
   116   2     5.50000     3.17543    -2.24537
   117   2     0.00000     6.35085     2.24537
   118   3    -5.50000     3.17543    -2.24537
   119   1    -5.50000    -3.17543     2.24537
   120   2     0.00000    -6.35085    -2.24537
   121   2     5.50000    -3.17543     2.24537
   122   3     0.00000    -0.00000     6.73610
   123   2     0.00000    -0.00000    -6.73610
   124   3     5.50000     1.58771     2.24537
   125   1     1.37500     5.55700    -2.24537
   126   2    -4.12500     3.96928     2.24537
   127   3    -5.50000    -1.58771    -2.24537
   128   2    -1.37500    -5.55700     2.24537
   129   1     4.12500    -3.96928    -2.24537
   130   2     4.12500     0.79386     4.49073
   131   3     1.37500     3.96928    -4.49073
   132   3    -2.75000     3.17543     4.49073
   133   2    -4.12500    -0.79386    -4.49073
   134   1    -1.37500    -3.96928     4.49073
   135   2     2.75000    -3.17543    -4.49073
   136   1     4.12500     3.96928     2.24537
   137   1    -1.37500     5.55700    -2.24537
   138   1    -5.50000     1.58771     2.24537
   139   2    -4.12500    -3.96928    -2.24537
   140   3     1.37500    -5.55700     2.24537
   141   2     5.50000    -1.58771    -2.24537
   142   2     2.75000     3.17543     4.49073
   143   3    -1.37500     3.96928    -4.49073
   144   1    -4.12500     0.79386     4.49073
   145   2    -2.75000    -3.17543    -4.49073
   146   2     1.37500    -3.96928     4.49073
   147   2     4.12500    -0.79386    -4.49073
   148   2    11.00000    -0.00000     0.00000
   149   2     5.50000     9.52628     0.00000
   150   2    -5.50000     9.52628     0.00000
   151   2   -11.00000    -0.00000     0.00000
   152   2    -5.50000    -9.52628     0.00000
   153   3     5.50000    -9.52628     0.00000
   154   3     5.50000    -3.17543     8.98146
   155   2     0.00000     6.35085     8.98146
   156   3    -5.50000    -3.17543     8.98146
   157   1     0.00000    -6.35085    -8.98146
   158   2     5.50000     3.17543    -8.98146
   159   2    -5.50000     3.17543    -8.98146
   160   2     9.62500     2.38157     0.00000
   161   3     9.62500    -0.79386     2.24537
   162   2     9.62500     0.79386    -2.24537
   163   2     2.75000     9.52628     0.00000
   164   3     4.12500     8.73242     2.24537
   165   3     5.50000     7.93857    -2.24537
   166   2    -6.87500     7.14471     0.00000
   167   2    -4.12500     8.73242     2.24537
   168   2    -5.50000     7.93857    -2.24537
   169   2    -9.62500    -2.38157     0.00000
   170   2    -9.62500    -0.79386     2.24537
   171   2    -9.62500     0.79386    -2.24537
   172   1    -2.75000    -9.52628     0.00000
   173   1    -5.50000    -7.93857     2.24537
   174   3    -4.12500    -8.73242    -2.24537
   175   1     6.87500    -7.14471     0.00000
   176   2     5.50000    -7.93857     2.24537
   177   2     4.12500    -8.73242    -2.24537
   178   2     4.12500    -0.79386     8.98146
   179   2     2.75000    -3.17543     8.98146
   180   2    -1.37500     3.96928     8.98146
   181   3     1.37500    -3.96928    -8.98146
   182   1    -1.37500    -3.96928    -8.98146
   183   3     2.75000     3.17543    -8.98146
   184   2     8.25000     4.76314     0.00000
   185   3     8.25000    -1.58771     4.49073
   186   3     8.25000     1.58771    -4.49073
   187   2     0.00000     9.52628     0.00000
   188   2     2.75000     7.93857     4.49073
   189   2     5.50000     6.35085    -4.49073
   190   3    -8.25000     4.76314     0.00000
   191   2    -2.75000     7.93857     4.49073
   192   1    -5.50000     6.35085    -4.49073
   193   3    -8.25000    -4.76314     0.00000
   194   3    -8.25000    -1.58771     4.49073
   195   2    -8.25000     1.58771    -4.49073
   196   2     0.00000    -9.52628     0.00000
   197   2    -5.50000    -6.35085     4.49073
   198   3    -2.75000    -7.93857    -4.49073
   199   2     8.25000    -4.76314     0.00000
   200   2     5.50000    -6.35085     4.49073
   201   1     2.75000    -7.93857    -4.49073
   202   1     2.75000     1.58771     8.98146
   203   1     0.00000    -3.17543     8.98146
   204   2    -2.75000     1.58771     8.98146
   205   2     2.75000    -1.58771    -8.98146
   206   1    -2.75000    -1.58771    -8.98146
   207   1     0.00000     3.17543    -8.98146
   208   1     6.87500     7.14471     0.00000
   209   2     6.87500    -2.38157     6.73610
   210   3     6.87500     2.38157    -6.73610
   211   2    -2.75000     9.52628     0.00000
   212   3     1.37500     7.14471     6.73610
   213   3     5.50000     4.76314    -6.73610
   214   1    -9.62500     2.38157     0.00000
   215   1    -1.37500     7.14471     6.73610
   216   3    -5.50000     4.76314    -6.73610
   217   1    -6.87500    -7.14471     0.00000
   218   2    -6.87500    -2.38157     6.73610
   219   2    -6.87500     2.38157    -6.73610
   220   2     2.75000    -9.52628     0.00000
   221   1    -5.50000    -4.76314     6.73610
   222   3    -1.37500    -7.14471    -6.73610
   223   1     9.62500    -2.38157     0.00000
   224   2     5.50000    -4.76314     6.73610
   225   1     1.37500    -7.14471    -6.73610
   226   2     1.37500     3.96928     8.98146
   227   1    -2.75000    -3.17543     8.98146
   228   3    -4.12500    -0.79386     8.98146
   229   1     4.12500     0.79386    -8.98146
   230   2    -4.12500     0.79386    -8.98146
   231   1    -2.75000     3.17543    -8.98146
   232   1     8.25000     3.17543    -2.24537
   233   2     1.37500     8.73242     2.24537
   234   1    -6.87500     5.55700    -2.24537
   235   2    -8.25000    -3.17543     2.24537
   236   1    -1.37500    -8.73242    -2.24537
   237   3     6.87500    -5.55700     2.24537
   238   3     1.37500    -0.79386     8.98146
   239   3     0.00000    -1.58771    -8.98146
   240   3     6.87500     3.96928    -4.49073
   241   3     0.00000     7.93857     4.49073
   242   2    -6.87500     3.96928    -4.49073
   243   1    -6.87500    -3.96928     4.49073
   244   2     0.00000    -7.93857    -4.49073
   245   2     6.87500    -3.96928     4.49073
   246   2    -1.37500    -0.79386     8.98146
   247   3    -1.37500     0.79386    -8.98146
   248   3     8.25000     1.58771     2.24537
   249   1     2.75000     7.93857    -2.24537
   250   1    -5.50000     6.35085     2.24537
   251   2    -8.25000    -1.58771    -2.24537
   252   2    -2.75000    -7.93857     2.24537
   253   3     5.50000    -6.35085    -2.24537
   254   2     6.87500     0.79386     4.49073
   255   3     2.75000     6.35085    -4.49073
   256   1    -4.12500     5.55700     4.49073
   257   2    -6.87500    -0.79386    -4.49073
   258   1    -2.75000    -6.35085     4.49073
   259   2     4.12500    -5.55700    -4.49073
   260   2     5.50000    -0.00000     6.73610
   261   2     2.75000     4.76314    -6.73610
   262   2    -2.75000     4.76314     6.73610
   263   1    -5.50000    -0.00000    -6.73610
   264   1    -2.75000    -4.76314     6.73610
   265   1     2.75000    -4.76314    -6.73610
   266   2     6.87500     5.55700    -2.24537
   267   2    -1.37500     8.73242     2.24537
   268   2    -8.25000     3.17543    -2.24537
   269   1    -6.87500    -5.55700     2.24537
   270   1     1.37500    -8.73242    -2.24537
   271   1     8.25000    -3.17543     2.24537
   272   3     0.00000     1.58771     8.98146
   273   2     1.37500     0.79386    -8.98146
   274   1     6.87500     3.96928     2.24537
   275   2     0.00000     7.93857    -2.24537
   276   2    -6.87500     3.96928     2.24537
   277   1    -6.87500    -3.96928    -2.24537
   278   2     0.00000    -7.93857     2.24537
   279   1     6.87500    -3.96928    -2.24537
   280   3     5.50000     3.17543     4.49073
   281   3     0.00000     6.35085    -4.49073
   282   2    -5.50000     3.17543     4.49073
   283   1    -5.50000    -3.17543    -4.49073
   284   2     0.00000    -6.35085     4.49073
   285   1     5.50000    -3.17543    -4.49073
   286   2     4.12500     2.38157     6.73610
   287   1     0.00000     4.76314    -6.73610
   288   1    -4.12500     2.38157     6.73610
   289   2    -4.12500    -2.38157    -6.73610
   290   2     0.00000    -4.76314     6.73610
   291   2     4.12500    -2.38157    -6.73610
   292   2     5.50000     6.35085     2.24537
   293   3    -2.75000     7.93857    -2.24537
   294   1    -8.25000     1.58771     2.24537
   295   2    -5.50000    -6.35085    -2.24537
   296   2     2.75000    -7.93857     2.24537
   297   3     8.25000    -1.58771    -2.24537
   298   3     4.12500     5.55700     4.49073
   299   2    -2.75000     6.35085    -4.49073
   300   2    -6.87500     0.79386     4.49073
   301   3    -4.12500    -5.55700    -4.49073
   302   2     2.75000    -6.35085     4.49073
   303   2     6.87500    -0.79386    -4.49073
   304   1     2.75000     4.76314     6.73610
   305   3    -2.75000     4.76314    -6.73610
   306   1    -5.50000    -0.00000     6.73610
   307   1    -2.75000    -4.76314    -6.73610
   308   3     2.75000    -4.76314     6.73610
   309   3     5.50000    -0.00000    -6.73610
   310   3    13.75000    -0.00000     0.00000
   311   2     6.87500    11.90785     0.00000
   312   2    -6.87500    11.90785     0.00000
   313   2   -13.75000    -0.00000     0.00000
   314   1    -6.87500   -11.90785     0.00000
   315   2     6.87500   -11.90785     0.00000
   316   1     6.87500    -3.96928    11.22683
   317   1     0.00000     7.93857    11.22683
   318   3    -6.87500    -3.96928    11.22683
   319   1     0.00000    -7.93857   -11.22683
   320   3     6.87500     3.96928   -11.22683
   321   2    -6.87500     3.96928   -11.22683
   322   3    12.37500     2.38157     0.00000
   323   3    12.37500    -0.79386     2.24537
   324   1    12.37500     0.79386    -2.24537
   325   2     4.12500    11.90785     0.00000
   326   3     5.50000    11.11399     2.24537
   327   2     6.87500    10.32014    -2.24537
   328   2    -8.25000     9.52628     0.00000
   329   2    -5.50000    11.11399     2.24537
   330   3    -6.87500    10.32014    -2.24537
   331   2   -12.37500    -2.38157     0.00000
   332   2   -12.37500    -0.79386     2.24537
   333   3   -12.37500     0.79386    -2.24537
   334   2    -4.12500   -11.90785     0.00000
   335   2    -6.87500   -10.32014     2.24537
   336   2    -5.50000   -11.11399    -2.24537
   337   3     8.25000    -9.52628     0.00000
   338   1     6.87500   -10.32014     2.24537
   339   1     5.50000   -11.11399    -2.24537
   340   2     5.50000    -1.58771    11.22683
   341   3     4.12500    -3.96928    11.22683
   342   2    -1.37500     5.55700    11.22683
   343   3     1.37500    -5.55700   -11.22683
   344   2    -1.37500    -5.55700   -11.22683
   345   2     4.12500     3.96928   -11.22683
   346   3    11.00000     4.76314     0.00000
   347   1    11.00000    -1.58771     4.49073
   348   1    11.00000     1.58771    -4.49073
   349   2     1.37500    11.90785     0.00000
   350   3     4.12500    10.32014     4.49073
   351   1     6.87500     8.73242    -4.49073
   352   1    -9.62500     7.14471     0.00000
   353   2    -4.12500    10.32014     4.49073
   354   2    -6.87500     8.73242    -4.49073
   355   3   -11.00000    -4.76314     0.00000
   356   3   -11.00000    -1.58771     4.49073
   357   2   -11.00000     1.58771    -4.49073
   358   2    -1.37500   -11.90785     0.00000
   359   2    -6.87500    -8.73242     4.49073
   360   3    -4.12500   -10.32014    -4.49073
   361   2     9.62500    -7.14471     0.00000
   362   3     6.87500    -8.73242     4.49073
   363   3     4.12500   -10.32014    -4.49073
   364   3     4.12500     0.79386    11.22683
   365   1     1.37500    -3.96928    11.22683
   366   2    -2.75000     3.17543    11.22683
   367   3     2.75000    -3.17543   -11.22683
   368   2    -2.75000    -3.17543   -11.22683
   369   3     1.37500     3.96928   -11.22683
   370   1     9.62500     7.14471     0.00000
   371   3     9.62500    -2.38157     6.73610
   372   2     9.62500     2.38157    -6.73610
   373   2    -1.37500    11.90785     0.00000
   374   2     2.75000     9.52628     6.73610
   375   1     6.87500     7.14471    -6.73610
   376   1   -11.00000     4.76314     0.00000
   377   3    -2.75000     9.52628     6.73610
   378   3    -6.87500     7.14471    -6.73610
   379   2    -9.62500    -7.14471     0.00000
   380   1    -9.62500    -2.38157     6.73610
   381   2    -9.62500     2.38157    -6.73610
   382   1     1.37500   -11.90785     0.00000
   383   1    -6.87500    -7.14471     6.73610
   384   1    -2.75000    -9.52628    -6.73610
   385   3    11.00000    -4.76314     0.00000
   386   2     6.87500    -7.14471     6.73610
   387   1     2.75000    -9.52628    -6.73610
   388   3     2.75000     3.17543    11.22683
   389   3    -1.37500    -3.96928    11.22683
   390   3    -4.12500     0.79386    11.22683
   391   2     4.12500    -0.79386   -11.22683
   392   3    -4.12500    -0.79386   -11.22683
   393   1    -1.37500     3.96928   -11.22683
   394   2     8.25000     9.52628     0.00000
   395   1     8.25000    -3.17543     8.98146
   396   2     8.25000     3.17543    -8.98146
   397   3    -4.12500    11.90785     0.00000
   398   2     1.37500     8.73242     8.98146
   399   3     6.87500     5.55700    -8.98146
   400   3   -12.37500     2.38157     0.00000
   401   2    -1.37500     8.73242     8.98146
   402   2    -6.87500     5.55700    -8.98146
   403   2    -8.25000    -9.52628     0.00000
   404   3    -8.25000    -3.17543     8.98146
   405   2    -8.25000     3.17543    -8.98146
   406   3     4.12500   -11.90785     0.00000
   407   2    -6.87500    -5.55700     8.98146
   408   3    -1.37500    -8.73242    -8.98146
   409   2    12.37500    -2.38157     0.00000
   410   2     6.87500    -5.55700     8.98146
   411   3     1.37500    -8.73242    -8.98146
   412   1     1.37500     5.55700    11.22683
   413   2    -4.12500    -3.96928    11.22683
   414   2    -5.50000    -1.58771    11.22683
   415   3     5.50000     1.58771   -11.22683
   416   3    -5.50000     1.58771   -11.22683
   417   1    -4.12500     3.96928   -11.22683
   418   2    11.00000     3.17543    -2.24537
   419   2     2.75000    11.11399     2.24537
   420   1    -8.25000     7.93857    -2.24537
   421   3   -11.00000    -3.17543     2.24537
   422   2    -2.75000   -11.11399    -2.24537
   423   1     8.25000    -7.93857     2.24537
   424   2     2.75000    -1.58771    11.22683
   425   1     0.00000    -3.17543   -11.22683
   426   3     9.62500     3.96928    -4.49073
   427   2     1.37500    10.32014     4.49073
   428   3    -8.25000     6.35085    -4.49073
   429   1    -9.62500    -3.96928     4.49073
   430   2    -1.37500   -10.32014    -4.49073
   431   2     8.25000    -6.35085     4.49073
   432   1     0.00000    -1.58771    11.22683
   433   2    -1.37500    -0.79386   -11.22683
   434   3     8.25000     4.76314    -6.73610
   435   3     0.00000     9.52628     6.73610
   436   2    -8.25000     4.76314    -6.73610
   437   3    -8.25000    -4.76314     6.73610
   438   3     0.00000    -9.52628    -6.73610
   439   1     8.25000    -4.76314     6.73610
   440   3    -2.75000    -1.58771    11.22683
   441   2    -2.75000     1.58771   -11.22683
   442   3    11.00000     1.58771     2.24537
   443   1     4.12500    10.32014    -2.24537
   444   1    -6.87500     8.73242     2.24537
   445   1   -11.00000    -1.58771    -2.24537
   446   2    -4.12500   -10.32014     2.24537
   447   1     6.87500    -8.73242    -2.24537
   448   1     9.62500     0.79386     4.49073
   449   1     4.12500     8.73242    -4.49073
   450   1    -5.50000     7.93857     4.49073
   451   2    -9.62500    -0.79386    -4.49073
   452   3    -4.12500    -8.73242     4.49073
   453   3     5.50000    -7.93857    -4.49073
   454   1     8.25000    -0.00000     6.73610
   455   3     4.12500     7.14471    -6.73610
   456   1    -4.12500     7.14471     6.73610
   457   2    -8.25000    -0.00000    -6.73610
   458   1    -4.12500    -7.14471     6.73610
   459   1     4.12500    -7.14471    -6.73610
   460   2     6.87500    -0.79386     8.98146
   461   2     4.12500     5.55700    -8.98146
   462   1    -2.75000     6.35085     8.98146
   463   2    -6.87500     0.79386    -8.98146
   464   1    -4.12500    -5.55700     8.98146
   465   3     2.75000    -6.35085    -8.98146
   466   1     9.62500     5.55700    -2.24537
   467   3     0.00000    11.11399     2.24537
   468   2    -9.62500     5.55700    -2.24537
   469   1    -9.62500    -5.55700     2.24537
   470   1     0.00000   -11.11399    -2.24537
   471   2     9.62500    -5.55700     2.24537
   472   2     1.37500     0.79386    11.22683
   473   1     1.37500    -0.79386   -11.22683
   474   3     8.25000     6.35085    -4.49073
   475   2    -1.37500    10.32014     4.49073
   476   3    -9.62500     3.96928    -4.49073
   477   1    -8.25000    -6.35085     4.49073
   478   2     1.37500   -10.32014    -4.49073
   479   2     9.62500    -3.96928     4.49073
   480   3    -1.37500     0.79386    11.22683
   481   1     0.00000     1.58771   -11.22683
   482   2     9.62500     3.96928     2.24537
   483   1     1.37500    10.32014    -2.24537
   484   1    -8.25000     6.35085     2.24537
   485   2    -9.62500    -3.96928    -2.24537
   486   3    -1.37500   -10.32014     2.24537
   487   2     8.25000    -6.35085    -2.24537
   488   3     8.25000     3.17543     4.49073
   489   2     1.37500     8.73242    -4.49073
   490   2    -6.87500     5.55700     4.49073
   491   2    -8.25000    -3.17543    -4.49073
   492   2    -1.37500    -8.73242     4.49073
   493   1     6.87500    -5.55700    -4.49073
   494   2     6.87500     2.38157     6.73610
   495   2     1.37500     7.14471    -6.73610
   496   2    -5.50000     4.76314     6.73610
   497   2    -6.87500    -2.38157    -6.73610
   498   2    -1.37500    -7.14471     6.73610
   499   2     5.50000    -4.76314    -6.73610
   500   1     5.50000     1.58771     8.98146
   501   2     1.37500     5.55700    -8.98146
   502   3    -4.12500     3.96928     8.98146
   503   2    -5.50000    -1.58771    -8.98146
   504   1    -1.37500    -5.55700     8.98146
   505   2     4.12500    -3.96928    -8.98146
   506   3     8.25000     7.93857    -2.24537
   507   3    -2.75000    11.11399     2.24537
   508   3   -11.00000     3.17543    -2.24537
   509   2    -8.25000    -7.93857     2.24537
   510   2     2.75000   -11.11399    -2.24537
   511   3    11.00000    -3.17543     2.24537
   512   2     0.00000     3.17543    11.22683
   513   3     2.75000     1.58771   -11.22683
   514   1     8.25000     6.35085     2.24537
   515   2    -1.37500    10.32014    -2.24537
   516   2    -9.62500     3.96928     2.24537
   517   1    -8.25000    -6.35085    -2.24537
   518   1     1.37500   -10.32014     2.24537
   519   2     9.62500    -3.96928    -2.24537
   520   2     6.87500     5.55700     4.49073
   521   2    -1.37500     8.73242    -4.49073
   522   1    -8.25000     3.17543     4.49073
   523   1    -6.87500    -5.55700    -4.49073
   524   2     1.37500    -8.73242     4.49073
   525   2     8.25000    -3.17543    -4.49073
   526   2     5.50000     4.76314     6.73610
   527   3    -1.37500     7.14471    -6.73610
   528   2    -6.87500     2.38157     6.73610
   529   1    -5.50000    -4.76314    -6.73610
   530   2     1.37500    -7.14471     6.73610
   531   3     6.87500    -2.38157    -6.73610
   532   1     4.12500     3.96928     8.98146
   533   1    -1.37500     5.55700    -8.98146
   534   3    -5.50000     1.58771     8.98146
   535   1    -4.12500    -3.96928    -8.98146
   536   2     1.37500    -5.55700     8.98146
   537   3     5.50000    -1.58771    -8.98146
   538   2     6.87500     8.73242     2.24537
   539   2    -4.12500    10.32014    -2.24537
   540   3   -11.00000     1.58771     2.24537
   541   3    -6.87500    -8.73242    -2.24537
   542   2     4.12500   -10.32014     2.24537
   543   3    11.00000    -1.58771    -2.24537
   544   3     5.50000     7.93857     4.49073
   545   1    -4.12500     8.73242    -4.49073
   546   1    -9.62500     0.79386     4.49073
   547   2    -5.50000    -7.93857    -4.49073
   548   2     4.12500    -8.73242     4.49073
   549   2     9.62500    -0.79386    -4.49073
   550   3     4.12500     7.14471     6.73610
   551   1    -4.12500     7.14471    -6.73610
   552   1    -8.25000    -0.00000     6.73610
   553   2    -4.12500    -7.14471    -6.73610
   554   2     4.12500    -7.14471     6.73610
   555   2     8.25000    -0.00000    -6.73610
   556   3     2.75000     6.35085     8.98146
   557   1    -4.12500     5.55700    -8.98146
   558   2    -6.87500    -0.79386     8.98146
   559   2    -2.75000    -6.35085    -8.98146
   560   3     4.12500    -5.55700     8.98146
   561   3     6.87500     0.79386    -8.98146
   562   2    16.50000    -0.00000     0.00000
   563   2     8.25000    14.28942     0.00000
   564   3    -8.25000    14.28942     0.00000
   565   1   -16.50000    -0.00000     0.00000
   566   1    -8.25000   -14.28942     0.00000
   567   2     8.25000   -14.28942     0.00000
   568   3     8.25000    -4.76314    13.47219
   569   2     0.00000     9.52628    13.47219
   570   1    -8.25000    -4.76314    13.47219
   571   1     0.00000    -9.52628   -13.47219
   572   3     8.25000     4.76314   -13.47219
   573   2    -8.25000     4.76314   -13.47219
   574   3    15.12500     2.38157     0.00000
   575   3    15.12500    -0.79386     2.24537
   576   1    15.12500     0.79386    -2.24537
   577   2     5.50000    14.28942     0.00000
   578   2     6.87500    13.49556     2.24537
   579   3     8.25000    12.70171    -2.24537
   580   3    -9.62500    11.90785     0.00000
   581   1    -6.87500    13.49556     2.24537
   582   2    -8.25000    12.70171    -2.24537
   583   1   -15.12500    -2.38157     0.00000
   584   2   -15.12500    -0.79386     2.24537
   585   2   -15.12500     0.79386    -2.24537
   586   3    -5.50000   -14.28942     0.00000
   587   3    -8.25000   -12.70171     2.24537
   588   3    -6.87500   -13.49556    -2.24537
   589   3     9.62500   -11.90785     0.00000
   590   2     8.25000   -12.70171     2.24537
   591   2     6.87500   -13.49556    -2.24537
   592   1     6.87500    -2.38157    13.47219
   593   3     5.50000    -4.76314    13.47219
   594   1    -1.37500     7.14471    13.47219
   595   2     1.37500    -7.14471   -13.47219
   596   2    -1.37500    -7.14471   -13.47219
   597   2     5.50000     4.76314   -13.47219
   598   2    13.75000     4.76314     0.00000
   599   1    13.75000    -1.58771     4.49073
   600   2    13.75000     1.58771    -4.49073
   601   1     2.75000    14.28942     0.00000
   602   3     5.50000    12.70171     4.49073
   603   1     8.25000    11.11399    -4.49073
   604   1   -11.00000     9.52628     0.00000
   605   1    -5.50000    12.70171     4.49073
   606   1    -8.25000    11.11399    -4.49073
   607   3   -13.75000    -4.76314     0.00000
   608   3   -13.75000    -1.58771     4.49073
   609   2   -13.75000     1.58771    -4.49073
   610   1    -2.75000   -14.28942     0.00000
   611   2    -8.25000   -11.11399     4.49073
   612   1    -5.50000   -12.70171    -4.49073
   613   2    11.00000    -9.52628     0.00000
   614   3     8.25000   -11.11399     4.49073
   615   2     5.50000   -12.70171    -4.49073
   616   1     5.50000    -0.00000    13.47219
   617   2     2.75000    -4.76314    13.47219
   618   2    -2.75000     4.76314    13.47219
   619   2     2.75000    -4.76314   -13.47219
   620   1    -2.75000    -4.76314   -13.47219
   621   2     2.75000     4.76314   -13.47219
   622   2    12.37500     7.14471     0.00000
   623   3    12.37500    -2.38157     6.73610
   624   2    12.37500     2.38157    -6.73610
   625   3     0.00000    14.28942     0.00000
   626   2     4.12500    11.90785     6.73610
   627   2     8.25000     9.52628    -6.73610
   628   2   -12.37500     7.14471     0.00000
   629   2    -4.12500    11.90785     6.73610
   630   2    -8.25000     9.52628    -6.73610
   631   2   -12.37500    -7.14471     0.00000
   632   3   -12.37500    -2.38157     6.73610
   633   1   -12.37500     2.38157    -6.73610
   634   3     0.00000   -14.28942     0.00000