LAMMPS DATA FOR MEAM SIMULATION

   2587   atoms
      3   atom types

  -31.43   31.43   xlo xhi
  -31.43   31.43   ylo yhi
  -31.43   31.43   zlo zhi

 Atoms

     1   2     0.00000    -0.00000     0.00000
     2   3     2.75000    -0.00000     0.00000
     3   2     1.37500     2.38157     0.00000
     4   2    -1.37500     2.38157     0.00000
     5   1     1.37500    -0.79386     2.24537
     6   3     0.00000     1.58771     2.24537
     7   2    -1.37500    -0.79386     2.24537
     8   2     0.00000    -1.58771    -2.24537
     9   3     1.37500     0.79386    -2.24537
    10   2    -1.37500     0.79386    -2.24537
    11   2     2.75000     4.76314     0.00000
    12   1    -2.75000     4.76314     0.00000
    13   3    -5.50000    -0.00000     0.00000
    14   1    -2.75000    -4.76314     0.00000
    15   3     0.00000     3.17543     4.49073
    16   2    -2.75000    -1.58771     4.49073
    17   1     0.00000    -3.17543    -4.49073
    18   2    -2.75000     1.58771    -4.49073
    19   2     4.12500     2.38157     0.00000
    20   2     4.12500    -0.79386     2.24537
    21   2     4.12500     0.79386    -2.24537
    22   1     0.00000     4.76314     0.00000
    23   2     1.37500     3.96928     2.24537
    24   2     2.75000     3.17543    -2.24537
    25   1    -4.12500     2.38157     0.00000
    26   2    -1.37500     3.96928     2.24537
    27   1    -2.75000     3.17543    -2.24537
    28   2    -4.12500    -2.38157     0.00000
    29   2    -4.12500    -0.79386     2.24537
    30   3    -4.12500     0.79386    -2.24537
    31   2     0.00000    -4.76314     0.00000
    32   2    -2.75000    -3.17543     2.24537
    33   2    -1.37500    -3.96928    -2.24537
    34   3     4.12500    -2.38157     0.00000
    35   3     2.75000    -3.17543     2.24537
    36   1     1.37500     0.79386     4.49073
    37   2     0.00000    -1.58771     4.49073
    38   1    -1.37500     0.79386     4.49073
    39   1     1.37500    -0.79386    -4.49073
    40   2    -1.37500    -0.79386    -4.49073
    41   1     0.00000     1.58771    -4.49073
    42   2     2.75000     1.58771     2.24537
    43   1     0.00000     3.17543    -2.24537
    44   1    -2.75000     1.58771     2.24537
    45   1    -2.75000    -1.58771    -2.24537
    46   3     2.75000    -1.58771    -2.24537
    47   2     8.25000    -0.00000     0.00000
    48   1     4.12500     7.14471     0.00000
    49   2    -4.12500     7.14471     0.00000
    50   1    -8.25000    -0.00000     0.00000
    51   1    -4.12500    -7.14471     0.00000
    52   2     4.12500    -7.14471     0.00000
    53   2     4.12500    -2.38157     6.73610
    54   1     0.00000     4.76314     6.73610
    55   2    -4.12500    -2.38157     6.73610
    56   3     0.00000    -4.76314    -6.73610
    57   2     4.12500     2.38157    -6.73610
    58   2    -4.12500     2.38157    -6.73610
    59   2     6.87500     2.38157     0.00000
    60   3     6.87500    -0.79386     2.24537
    61   3     2.75000     6.35085     2.24537
    62   3     4.12500     5.55700    -2.24537
    63   2    -5.50000     4.76314     0.00000
    64   1    -2.75000     6.35085     2.24537
    65   2    -4.12500     5.55700    -2.24537
    66   2    -6.87500    -2.38157     0.00000
    67   1    -6.87500    -0.79386     2.24537
    68   2    -6.87500     0.79386    -2.24537
    69   1    -1.37500    -7.14471     0.00000
    70   2    -4.12500    -5.55700     2.24537
    71   2    -2.75000    -6.35085    -2.24537
    72   1     5.50000    -4.76314     0.00000
    73   2     4.12500    -5.55700     2.24537
    74   1     2.75000    -0.00000     6.73610
    75   2     1.37500    -2.38157     6.73610
    76   2    -1.37500     2.38157     6.73610
    77   1     1.37500    -2.38157    -6.73610
    78   1    -1.37500    -2.38157    -6.73610
    79   2     1.37500     2.38157    -6.73610
    80   1     5.50000     4.76314     0.00000
    81   1     5.50000    -1.58771     4.49073
    82   3     5.50000     1.58771    -4.49073
    83   2    -1.37500     7.14471     0.00000
    84   1     1.37500     5.55700     4.49073
    85   1     4.12500     3.96928    -4.49073
    86   1    -6.87500     2.38157     0.00000
    87   2    -1.37500     5.55700     4.49073
    88   3    -5.50000    -4.76314     0.00000
    89   2     1.37500    -7.14471     0.00000
    90   3    -4.12500    -3.96928     4.49073
    91   1    -1.37500    -5.55700    -4.49073
    92   1     6.87500    -2.38157     0.00000
    93   1     4.12500    -3.96928     4.49073
    94   1     1.37500    -5.55700    -4.49073
    95   2     1.37500     2.38157     6.73610
    96   1    -1.37500    -2.38157     6.73610
    97   2    -2.75000    -0.00000     6.73610
    98   2     2.75000    -0.00000    -6.73610
    99   2    -2.75000    -0.00000    -6.73610
   100   2    -1.37500     2.38157    -6.73610
   101   2     0.00000     6.35085     2.24537
   102   1    -5.50000     3.17543    -2.24537
   103   3    -5.50000    -3.17543     2.24537
   104   2     0.00000    -6.35085    -2.24537
   105   2     5.50000    -3.17543     2.24537
   106   2     0.00000    -0.00000    -6.73610
   107   2    -4.12500     3.96928     2.24537
   108   2    -5.50000    -1.58771    -2.24537
   109   2    -1.37500    -5.55700     2.24537
   110   3     4.12500    -3.96928    -2.24537
   111   1     4.12500     0.79386     4.49073
   112   2    -2.75000     3.17543     4.49073
   113   2    -4.12500    -0.79386    -4.49073
   114   2    -1.37500    -3.96928     4.49073
   115   2     4.12500     3.96928     2.24537
   116   3    -1.37500     5.55700    -2.24537
   117   2    -5.50000     1.58771     2.24537
   118   3    -4.12500    -3.96928    -2.24537
   119   2     1.37500    -5.55700     2.24537
   120   3     2.75000     3.17543     4.49073
   121   3    -1.37500     3.96928    -4.49073
   122   1    -4.12500     0.79386     4.49073
   123   2     1.37500    -3.96928     4.49073
   124   3     4.12500    -0.79386    -4.49073
   125   2    11.00000    -0.00000     0.00000
   126   1     5.50000     9.52628     0.00000
   127   3    -5.50000     9.52628     0.00000
   128   2   -11.00000    -0.00000     0.00000
   129   2    -5.50000    -9.52628     0.00000
   130   1     5.50000    -9.52628     0.00000
   131   2     5.50000    -3.17543     8.98146
   132   2     0.00000     6.35085     8.98146
   133   2    -5.50000    -3.17543     8.98146
   134   3     0.00000    -6.35085    -8.98146
   135   1     5.50000     3.17543    -8.98146
   136   2    -5.50000     3.17543    -8.98146
   137   2     9.62500     2.38157     0.00000
   138   2     9.62500    -0.79386     2.24537
   139   1     9.62500     0.79386    -2.24537
   140   1     2.75000     9.52628     0.00000
   141   1     4.12500     8.73242     2.24537
   142   2     5.50000     7.93857    -2.24537
   143   2    -6.87500     7.14471     0.00000
   144   1    -4.12500     8.73242     2.24537
   145   1    -5.50000     7.93857    -2.24537
   146   3    -9.62500    -2.38157     0.00000
   147   3    -9.62500     0.79386    -2.24537
   148   3    -2.75000    -9.52628     0.00000
   149   1    -5.50000    -7.93857     2.24537
   150   2     6.87500    -7.14471     0.00000
   151   2     5.50000    -7.93857     2.24537
   152   1     4.12500    -8.73242    -2.24537
   153   2    -1.37500     3.96928     8.98146
   154   2     1.37500    -3.96928    -8.98146
   155   2    -1.37500    -3.96928    -8.98146
   156   2     2.75000     3.17543    -8.98146
   157   3     8.25000     4.76314     0.00000
   158   1     8.25000    -1.58771     4.49073
   159   3     8.25000     1.58771    -4.49073
   160   3     0.00000     9.52628     0.00000
   161   3     2.75000     7.93857     4.49073
   162   2     5.50000     6.35085    -4.49073
   163   3    -8.25000     4.76314     0.00000
   164   1    -2.75000     7.93857     4.49073
   165   1    -8.25000    -4.76314     0.00000
   166   1    -8.25000    -1.58771     4.49073
   167   1    -5.50000    -6.35085     4.49073
   168   3    -2.75000    -7.93857    -4.49073
   169   3     8.25000    -4.76314     0.00000
   170   2     5.50000    -6.35085     4.49073
   171   3     2.75000     1.58771     8.98146
   172   1     0.00000    -3.17543     8.98146
   173   2    -2.75000     1.58771     8.98146
   174   2     2.75000    -1.58771    -8.98146
   175   2    -2.75000    -1.58771    -8.98146
   176   2     6.87500     7.14471     0.00000
   177   3     6.87500    -2.38157     6.73610
   178   1     6.87500     2.38157    -6.73610
   179   2    -2.75000     9.52628     0.00000
   180   3     1.37500     7.14471     6.73610
   181   1     5.50000     4.76314    -6.73610
   182   2    -9.62500     2.38157     0.00000
   183   1    -1.37500     7.14471     6.73610
   184   2    -5.50000     4.76314    -6.73610
   185   1    -6.87500    -7.14471     0.00000
   186   2    -6.87500    -2.38157     6.73610
   187   2     2.75000    -9.52628     0.00000
   188   3    -5.50000    -4.76314     6.73610
   189   2     9.62500    -2.38157     0.00000
   190   1     5.50000    -4.76314     6.73610
   191   3     1.37500    -7.14471    -6.73610
   192   2     1.37500     3.96928     8.98146
   193   2    -2.75000    -3.17543     8.98146
   194   3     4.12500     0.79386    -8.98146
   195   2    -4.12500     0.79386    -8.98146
   196   3    -2.75000     3.17543    -8.98146
   197   3     8.25000     3.17543    -2.24537
   198   1     1.37500     8.73242     2.24537
   199   2    -8.25000    -3.17543     2.24537
   200   2    -1.37500    -8.73242    -2.24537
   201   1     6.87500    -5.55700     2.24537
   202   1     1.37500    -0.79386     8.98146
   203   1     0.00000    -1.58771    -8.98146
   204   2     6.87500     3.96928    -4.49073
   205   3     0.00000     7.93857     4.49073
   206   3    -6.87500     3.96928    -4.49073
   207   2    -6.87500    -3.96928     4.49073
   208   2     0.00000    -7.93857    -4.49073
   209   2     6.87500    -3.96928     4.49073
   210   1    -1.37500    -0.79386     8.98146
   211   3    -1.37500     0.79386    -8.98146
   212   3     8.25000     1.58771     2.24537
   213   2     2.75000     7.93857    -2.24537
   214   3    -5.50000     6.35085     2.24537
   215   2    -8.25000    -1.58771    -2.24537
   216   1    -2.75000    -7.93857     2.24537
   217   3     5.50000    -6.35085    -2.24537
   218   1     6.87500     0.79386     4.49073
   219   1     2.75000     6.35085    -4.49073
   220   1    -4.12500     5.55700     4.49073
   221   2    -6.87500    -0.79386    -4.49073
   222   3    -2.75000    -6.35085     4.49073
   223   3     4.12500    -5.55700    -4.49073
   224   2     5.50000    -0.00000     6.73610
   225   1    -2.75000     4.76314     6.73610
   226   2    -2.75000    -4.76314     6.73610
   227   2     6.87500     5.55700    -2.24537
   228   1    -1.37500     8.73242     2.24537
   229   3    -8.25000     3.17543    -2.24537
   230   1     1.37500    -8.73242    -2.24537
   231   3     0.00000     1.58771     8.98146
   232   2     1.37500     0.79386    -8.98146
   233   1     6.87500     3.96928     2.24537
   234   3     0.00000     7.93857    -2.24537
   235   3    -6.87500     3.96928     2.24537
   236   3    -6.87500    -3.96928    -2.24537
   237   3     6.87500    -3.96928    -2.24537
   238   2     5.50000     3.17543     4.49073
   239   3     0.00000     6.35085    -4.49073
   240   1    -5.50000     3.17543     4.49073
   241   1    -5.50000    -3.17543    -4.49073
   242   2     0.00000    -6.35085     4.49073
   243   2     5.50000    -3.17543    -4.49073
   244   3     4.12500     2.38157     6.73610
   245   1     0.00000     4.76314    -6.73610
   246   1    -4.12500     2.38157     6.73610
   247   1    -4.12500    -2.38157    -6.73610
   248   2     0.00000    -4.76314     6.73610
   249   2     4.12500    -2.38157    -6.73610
   250   2    -2.75000     7.93857    -2.24537
   251   2    -8.25000     1.58771     2.24537
   252   3    -5.50000    -6.35085    -2.24537
   253   1     2.75000    -7.93857     2.24537
   254   1     8.25000    -1.58771    -2.24537
   255   2     4.12500     5.55700     4.49073
   256   2    -2.75000     6.35085    -4.49073
   257   3    -6.87500     0.79386     4.49073
   258   1     2.75000    -6.35085     4.49073
   259   2     6.87500    -0.79386    -4.49073
   260   3     2.75000     4.76314     6.73610
   261   2    -2.75000     4.76314    -6.73610
   262   1    -5.50000    -0.00000     6.73610
   263   3    -2.75000    -4.76314    -6.73610
   264   1     2.75000    -4.76314     6.73610
   265   1     5.50000    -0.00000    -6.73610
   266   2    13.75000    -0.00000     0.00000
   267   3     6.87500    11.90785     0.00000
   268   2    -6.87500    11.90785     0.00000
   269   2   -13.75000    -0.00000     0.00000
   270   2    -6.87500   -11.90785     0.00000
   271   3     6.87500   -11.90785     0.00000
   272   2     6.87500    -3.96928    11.22683
   273   2    -6.87500    -3.96928    11.22683
   274   1     0.00000    -7.93857   -11.22683
   275   2     6.87500     3.96928   -11.22683
   276   2    -6.87500     3.96928   -11.22683
   277   2    12.37500     0.79386    -2.24537
   278   2     4.12500    11.90785     0.00000
   279   2     5.50000    11.11399     2.24537
   280   1     6.87500    10.32014    -2.24537
   281   1    -5.50000    11.11399     2.24537
   282   3    -6.87500    10.32014    -2.24537
   283   2   -12.37500    -2.38157     0.00000
   284   2   -12.37500    -0.79386     2.24537
   285   1   -12.37500     0.79386    -2.24537
   286   2    -4.12500   -11.90785     0.00000
   287   1    -6.87500   -10.32014     2.24537
   288   2    -5.50000   -11.11399    -2.24537
   289   1     8.25000    -9.52628     0.00000
   290   2     6.87500   -10.32014     2.24537
   291   2     5.50000   -11.11399    -2.24537
   292   2     5.50000    -1.58771    11.22683
   293   2     4.12500    -3.96928    11.22683
   294   1    -1.37500     5.55700    11.22683
   295   1     1.37500    -5.55700   -11.22683
   296   2    -1.37500    -5.55700   -11.22683
   297   2     4.12500     3.96928   -11.22683
   298   1    11.00000     4.76314     0.00000
   299   3    11.00000    -1.58771     4.49073
   300   3    11.00000     1.58771    -4.49073
   301   1     1.37500    11.90785     0.00000
   302   1     4.12500    10.32014     4.49073
   303   1     6.87500     8.73242    -4.49073
   304   2    -9.62500     7.14471     0.00000
   305   1   -11.00000    -4.76314     0.00000
   306   3   -11.00000    -1.58771     4.49073
   307   3   -11.00000     1.58771    -4.49073
   308   3    -1.37500   -11.90785     0.00000
   309   2    -6.87500    -8.73242     4.49073
   310   2    -4.12500   -10.32014    -4.49073
   311   1     9.62500    -7.14471     0.00000
   312   2     4.12500   -10.32014    -4.49073
   313   3     4.12500     0.79386    11.22683
   314   3     1.37500    -3.96928    11.22683
   315   2    -2.75000    -3.17543   -11.22683
   316   1     9.62500     7.14471     0.00000
   317   2     9.62500    -2.38157     6.73610
   318   2    -1.37500    11.90785     0.00000
   319   3     2.75000     9.52628     6.73610
   320   2     6.87500     7.14471    -6.73610
   321   1   -11.00000     4.76314     0.00000
   322   1    -2.75000     9.52628     6.73610
   323   2    -6.87500     7.14471    -6.73610
   324   1    -9.62500    -7.14471     0.00000
   325   1    -9.62500    -2.38157     6.73610
   326   1    -9.62500     2.38157    -6.73610
   327   3     1.37500   -11.90785     0.00000
   328   1    -6.87500    -7.14471     6.73610
   329   2    -2.75000    -9.52628    -6.73610
   330   2     6.87500    -7.14471     6.73610
   331   2     2.75000    -9.52628    -6.73610
   332   2     2.75000     3.17543    11.22683
   333   1    -1.37500    -3.96928    11.22683
   334   1     4.12500    -0.79386   -11.22683
   335   2    -4.12500    -0.79386   -11.22683
   336   2    -1.37500     3.96928   -11.22683
   337   1     8.25000     9.52628     0.00000
   338   2     8.25000    -3.17543     8.98146
   339   3     8.25000     3.17543    -8.98146
   340   2    -4.12500    11.90785     0.00000
   341   1     1.37500     8.73242     8.98146
   342   2     6.87500     5.55700    -8.98146
   343   2   -12.37500     2.38157     0.00000
   344   2    -1.37500     8.73242     8.98146
   345   3    -6.87500     5.55700    -8.98146
   346   3    -8.25000    -9.52628     0.00000
   347   1    -8.25000    -3.17543     8.98146
   348   2    -8.25000     3.17543    -8.98146
   349   3     4.12500   -11.90785     0.00000
   350   2    -6.87500    -5.55700     8.98146
   351   3    -1.37500    -8.73242    -8.98146
   352   1    12.37500    -2.38157     0.00000
   353   2     6.87500    -5.55700     8.98146
   354   1     1.37500    -8.73242    -8.98146
   355   2     1.37500     5.55700    11.22683
   356   2    -4.12500    -3.96928    11.22683
   357   2    -5.50000    -1.58771    11.22683
   358   2    -5.50000     1.58771   -11.22683
   359   1    -4.12500     3.96928   -11.22683
   360   1    11.00000     3.17543    -2.24537
   361   3     2.75000    11.11399     2.24537
   362   1    -8.25000     7.93857    -2.24537
   363   2   -11.00000    -3.17543     2.24537
   364   1    -2.75000   -11.11399    -2.24537
   365   2     8.25000    -7.93857     2.24537
   366   3     2.75000    -1.58771    11.22683
   367   2     0.00000    -3.17543   -11.22683
   368   1     9.62500     3.96928    -4.49073
   369   2     1.37500    10.32014     4.49073
   370   1    -8.25000     6.35085    -4.49073
   371   2    -9.62500    -3.96928     4.49073
   372   2    -1.37500   -10.32014    -4.49073
   373   2     8.25000    -6.35085     4.49073
   374   3     0.00000    -1.58771    11.22683
   375   1    -1.37500    -0.79386   -11.22683
   376   2     8.25000     4.76314    -6.73610
   377   2    -8.25000     4.76314    -6.73610
   378   1    -8.25000    -4.76314     6.73610
   379   3     0.00000    -9.52628    -6.73610
   380   3     8.25000    -4.76314     6.73610
   381   2    -2.75000    -1.58771    11.22683
   382   2    -2.75000     1.58771   -11.22683
   383   3    11.00000     1.58771     2.24537
   384   3     4.12500    10.32014    -2.24537
   385   2    -6.87500     8.73242     2.24537
   386   2   -11.00000    -1.58771    -2.24537
   387   2    -4.12500   -10.32014     2.24537
   388   1     6.87500    -8.73242    -2.24537
   389   3    -5.50000     7.93857     4.49073
   390   2    -9.62500    -0.79386    -4.49073
   391   1    -4.12500    -8.73242     4.49073
   392   1     5.50000    -7.93857    -4.49073
   393   3     8.25000    -0.00000     6.73610
   394   2     4.12500     7.14471    -6.73610
   395   1    -4.12500     7.14471     6.73610
   396   2    -8.25000    -0.00000    -6.73610
   397   1    -4.12500    -7.14471     6.73610
   398   1     4.12500    -7.14471    -6.73610
   399   1     6.87500    -0.79386     8.98146
   400   2     4.12500     5.55700    -8.98146
   401   1    -2.75000     6.35085     8.98146
   402   2    -4.12500    -5.55700     8.98146
   403   2     2.75000    -6.35085    -8.98146
   404   3     9.62500     5.55700    -2.24537
   405   2     0.00000    11.11399     2.24537
   406   2    -9.62500     5.55700    -2.24537
   407   2    -9.62500    -5.55700     2.24537
   408   2     0.00000   -11.11399    -2.24537
   409   1     9.62500    -5.55700     2.24537
   410   3     1.37500     0.79386    11.22683
   411   2     1.37500    -0.79386   -11.22683
   412   2    -1.37500    10.32014     4.49073
   413   3    -8.25000    -6.35085     4.49073
   414   3     1.37500   -10.32014    -4.49073
   415   2     9.62500    -3.96928     4.49073
   416   2    -1.37500     0.79386    11.22683
   417   2     0.00000     1.58771   -11.22683
   418   2     9.62500     3.96928     2.24537
   419   2     1.37500    10.32014    -2.24537
   420   2    -8.25000     6.35085     2.24537
   421   2    -9.62500    -3.96928    -2.24537
   422   3    -1.37500   -10.32014     2.24537
   423   2     8.25000    -6.35085    -2.24537
   424   2     8.25000     3.17543     4.49073
   425   1     1.37500     8.73242    -4.49073
   426   3    -6.87500     5.55700     4.49073
   427   2    -8.25000    -3.17543    -4.49073
   428   3    -1.37500    -8.73242     4.49073
   429   2     6.87500    -5.55700    -4.49073
   430   2     1.37500     7.14471    -6.73610
   431   2    -5.50000     4.76314     6.73610
   432   2    -6.87500    -2.38157    -6.73610
   433   2     5.50000    -4.76314    -6.73610
   434   3     5.50000     1.58771     8.98146
   435   3    -4.12500     3.96928     8.98146
   436   3    -5.50000    -1.58771    -8.98146
   437   2    -1.37500    -5.55700     8.98146
   438   1     4.12500    -3.96928    -8.98146
   439   2     8.25000     7.93857    -2.24537
   440   3    -2.75000    11.11399     2.24537
   441   1   -11.00000     3.17543    -2.24537
   442   2     2.75000   -11.11399    -2.24537
   443   2    11.00000    -3.17543     2.24537
   444   3     0.00000     3.17543    11.22683
   445   2     2.75000     1.58771   -11.22683
   446   2     8.25000     6.35085     2.24537
   447   2    -1.37500    10.32014    -2.24537
   448   2     9.62500    -3.96928    -2.24537
   449   2     6.87500     5.55700     4.49073
   450   2    -1.37500     8.73242    -4.49073
   451   2    -6.87500    -5.55700    -4.49073
   452   2     1.37500    -8.73242     4.49073
   453   1     8.25000    -3.17543    -4.49073
   454   1     5.50000     4.76314     6.73610
   455   2    -1.37500     7.14471    -6.73610
   456   1    -5.50000    -4.76314    -6.73610
   457   2     6.87500    -2.38157    -6.73610
   458   2    -1.37500     5.55700    -8.98146
   459   2    -5.50000     1.58771     8.98146
   460   1     1.37500    -5.55700     8.98146
   461   2     6.87500     8.73242     2.24537
   462   1    -4.12500    10.32014    -2.24537
   463   1   -11.00000     1.58771     2.24537
   464   3     4.12500   -10.32014     2.24537
   465   1    11.00000    -1.58771    -2.24537
   466   2     5.50000     7.93857     4.49073
   467   2    -9.62500     0.79386     4.49073
   468   2    -5.50000    -7.93857    -4.49073
   469   1     9.62500    -0.79386    -4.49073
   470   2     4.12500     7.14471     6.73610
   471   2    -4.12500     7.14471    -6.73610
   472   1    -8.25000    -0.00000     6.73610
   473   1    -4.12500     5.55700    -8.98146
   474   2    -6.87500    -0.79386     8.98146
   475   1    -2.75000    -6.35085    -8.98146
   476   3     4.12500    -5.55700     8.98146
   477   2    16.50000    -0.00000     0.00000
   478   2     8.25000    14.28942     0.00000
   479   2    -8.25000    14.28942     0.00000
   480   2   -16.50000    -0.00000     0.00000
   481   2    -8.25000   -14.28942     0.00000
   482   3     8.25000   -14.28942     0.00000
   483   1     8.25000    -4.76314    13.47219
   484   2     0.00000     9.52628    13.47219
   485   2    -8.25000    -4.76314    13.47219
   486   3     8.25000     4.76314   -13.47219
   487   3    -8.25000     4.76314   -13.47219
   488   1    15.12500     2.38157     0.00000
   489   1    15.12500    -0.79386     2.24537
   490   2    15.12500     0.79386    -2.24537
   491   3     5.50000    14.28942     0.00000
   492   2     6.87500    13.49556     2.24537
   493   2     8.25000    12.70171    -2.24537
   494   2    -8.25000    12.70171    -2.24537
   495   3   -15.12500    -2.38157     0.00000
   496   2   -15.12500    -0.79386     2.24537
   497   2   -15.12500     0.79386    -2.24537
   498   1    -5.50000   -14.28942     0.00000
   499   1    -8.25000   -12.70171     2.24537
   500   3    -6.87500   -13.49556    -2.24537
   501   3     9.62500   -11.90785     0.00000
   502   2     8.25000   -12.70171     2.24537
   503   3     6.87500   -13.49556    -2.24537
   504   2     6.87500    -2.38157    13.47219
   505   1     5.50000    -4.76314    13.47219
   506   3     1.37500    -7.14471   -13.47219
   507   3    -1.37500    -7.14471   -13.47219
   508   2     5.50000     4.76314   -13.47219
   509   2    13.75000     4.76314     0.00000
   510   2    13.75000     1.58771    -4.49073
   511   3     2.75000    14.28942     0.00000
   512   1     8.25000    11.11399    -4.49073
   513   2   -11.00000     9.52628     0.00000
   514   1    -5.50000    12.70171     4.49073
   515   2   -13.75000    -4.76314     0.00000
   516   1   -13.75000    -1.58771     4.49073
   517   3   -13.75000     1.58771    -4.49073
   518   2    -2.75000   -14.28942     0.00000
   519   3    -8.25000   -11.11399     4.49073
   520   2    -5.50000   -12.70171    -4.49073
   521   3    11.00000    -9.52628     0.00000
   522   2     8.25000   -11.11399     4.49073
   523   3     5.50000    -0.00000    13.47219
   524   3     2.75000    -4.76314    13.47219
   525   1    -2.75000     4.76314    13.47219
   526   2     2.75000    -4.76314   -13.47219
   527   2    -2.75000    -4.76314   -13.47219
   528   2    12.37500     7.14471     0.00000
   529   3    12.37500    -2.38157     6.73610
   530   2    12.37500     2.38157    -6.73610
   531   2     0.00000    14.28942     0.00000
   532   1     4.12500    11.90785     6.73610
   533   2     8.25000     9.52628    -6.73610
   534   2   -12.37500     7.14471     0.00000
   535   2    -8.25000     9.52628    -6.73610
   536   2   -12.37500    -7.14471     0.00000
   537   1   -12.37500     2.38157    -6.73610
   538   2     0.00000   -14.28942     0.00000
   539   2    -8.25000    -9.52628     6.73610
   540   3    12.37500    -7.14471     0.00000
   541   2     8.25000    -9.52628     6.73610
   542   3     4.12500   -11.90785    -6.73610
   543   1     4.12500     2.38157    13.47219
   544   3     0.00000    -4.76314    13.47219
   545   2    -4.12500     2.38157    13.47219
   546   1     4.12500    -2.38157   -13.47219
   547   1    -4.12500    -2.38157   -13.47219
   548   2     0.00000     4.76314   -13.47219
   549   2    11.00000    -3.17543     8.98146
   550   2    11.00000     3.17543    -8.98146
   551   2    -2.75000    14.28942     0.00000
   552   2     2.75000    11.11399     8.98146
   553   3     8.25000     7.93857    -8.98146
   554   2   -13.75000     4.76314     0.00000
   555   1    -8.25000     7.93857    -8.98146
   556   2   -11.00000    -9.52628     0.00000
   557   2   -11.00000    -3.17543     8.98146
   558   3   -11.00000     3.17543    -8.98146
   559   2     2.75000   -14.28942     0.00000
   560   1    -8.25000    -7.93857     8.98146
   561   3    -2.75000   -11.11399    -8.98146
   562   1     8.25000    -7.93857     8.98146
   563   3     2.75000   -11.11399    -8.98146
   564   3     2.75000     4.76314    13.47219
   565   1    -2.75000    -4.76314    13.47219
   566   2    -5.50000    -0.00000    13.47219
   567   1     5.50000    -0.00000   -13.47219
   568   2    -5.50000    -0.00000   -13.47219
   569   3    -2.75000     4.76314   -13.47219
   570   2     9.62500    11.90785     0.00000
   571   2     9.62500    -3.96928    11.22683
   572   2    -5.50000    14.28942     0.00000
   573   2     8.25000     6.35085   -11.22683
   574   2   -15.12500     2.38157     0.00000
   575   3    -1.37500    10.32014    11.22683
   576   2    -8.25000     6.35085   -11.22683
   577   3    -9.62500   -11.90785     0.00000
   578   2    -9.62500    -3.96928    11.22683
   579   1    -9.62500     3.96928   -11.22683
   580   1     5.50000   -14.28942     0.00000
   581   2    -8.25000    -6.35085    11.22683
   582   1    -1.37500   -10.32014   -11.22683
   583   3     8.25000    -6.35085    11.22683
   584   2     1.37500   -10.32014   -11.22683
   585   2     1.37500     7.14471    13.47219
   586   2    -5.50000    -4.76314    13.47219
   587   2    -6.87500    -2.38157    13.47219
   588   1     6.87500     2.38157   -13.47219
   589   1    -6.87500     2.38157   -13.47219
   590   2    -5.50000     4.76314   -13.47219
   591   1    13.75000     3.17543    -2.24537
   592   2     4.12500    13.49556     2.24537
   593   2    -9.62500    10.32014    -2.24537
   594   2   -13.75000    -3.17543     2.24537
   595   2    -4.12500   -13.49556    -2.24537
   596   2     9.62500   -10.32014     2.24537
   597   3     4.12500    -2.38157    13.47219
   598   2     0.00000    -4.76314   -13.47219
   599   2     2.75000    12.70171     4.49073
   600   2   -12.37500    -3.96928     4.49073
   601   2     9.62500    -8.73242     4.49073
   602   3     1.37500    -2.38157    13.47219
   603   3    -1.37500    -2.38157   -13.47219
   604   2     1.37500    11.90785     6.73610
   605   2    -9.62500     7.14471    -6.73610
   606   1    -1.37500   -11.90785    -6.73610
   607   2     9.62500    -7.14471     6.73610
   608   3    -1.37500    -2.38157    13.47219
   609   2    -2.75000    -0.00000   -13.47219
   610   3     0.00000    11.11399     8.98146
   611   2    -9.62500     5.55700    -8.98146
   612   2    -9.62500    -5.55700     8.98146
   613   2     0.00000   -11.11399    -8.98146
   614   2    -4.12500    -2.38157    13.47219
   615   1    -4.12500     2.38157   -13.47219
   616   3    13.75000     1.58771     2.24537
   617   1     5.50000    12.70171    -2.24537
   618   1    -8.25000    11.11399     2.24537
   619   1   -13.75000    -1.58771    -2.24537
   620   1     8.25000   -11.11399    -2.24537
   621   1    12.37500     0.79386     4.49073
   622   3     5.50000    11.11399    -4.49073
   623   2   -12.37500    -0.79386    -4.49073
   624   1    -5.50000   -11.11399     4.49073
   625   2     6.87500   -10.32014    -4.49073
   626   2    11.00000    -0.00000     6.73610
   627   2     5.50000     9.52628    -6.73610
   628   2    -5.50000     9.52628     6.73610
   629   2   -11.00000    -0.00000    -6.73610
   630   3    -5.50000    -9.52628     6.73610
   631   1     5.50000    -9.52628    -6.73610
   632   2     9.62500    -0.79386     8.98146
   633   1     5.50000     7.93857    -8.98146
   634   3    -4.12500     8.73242     8.98146