LAMMPS DATA FOR MEAM SIMULATION

   2891   atoms
      3   atom types

  -31.43   31.43   xlo xhi
  -31.43   31.43   ylo yhi
  -31.43   31.43   zlo zhi

 Atoms

     1   2     0.00000    -0.00000     0.00000
     2   3     2.75000    -0.00000     0.00000
     3   2     1.37500     2.38157     0.00000
     4   2    -1.37500     2.38157     0.00000
     5   3    -2.75000    -0.00000     0.00000
     6   2    -1.37500    -2.38157     0.00000
     7   2     1.37500    -2.38157     0.00000
     8   1     1.37500    -0.79386     2.24537
     9   3     0.00000     1.58771     2.24537
    10   2    -1.37500    -0.79386     2.24537
    11   3     1.37500     0.79386    -2.24537
    12   2    -1.37500     0.79386    -2.24537
    13   2     5.50000    -0.00000     0.00000
    14   1    -2.75000     4.76314     0.00000
    15   3    -5.50000    -0.00000     0.00000
    16   1    -2.75000    -4.76314     0.00000
    17   2     2.75000    -4.76314     0.00000
    18   1     2.75000    -1.58771     4.49073
    19   3     0.00000     3.17543     4.49073
    20   2    -2.75000    -1.58771     4.49073
    21   1     0.00000    -3.17543    -4.49073
    22   1     2.75000     1.58771    -4.49073
    23   2    -2.75000     1.58771    -4.49073
    24   2     4.12500     2.38157     0.00000
    25   2     4.12500    -0.79386     2.24537
    26   2     4.12500     0.79386    -2.24537
    27   1     0.00000     4.76314     0.00000
    28   2     1.37500     3.96928     2.24537
    29   2     2.75000     3.17543    -2.24537
    30   1    -4.12500     2.38157     0.00000
    31   2    -1.37500     3.96928     2.24537
    32   1    -2.75000     3.17543    -2.24537
    33   2    -4.12500    -2.38157     0.00000
    34   2    -4.12500    -0.79386     2.24537
    35   3    -4.12500     0.79386    -2.24537
    36   2     0.00000    -4.76314     0.00000
    37   2    -2.75000    -3.17543     2.24537
    38   2    -1.37500    -3.96928    -2.24537
    39   3     4.12500    -2.38157     0.00000
    40   3     2.75000    -3.17543     2.24537
    41   2     1.37500    -3.96928    -2.24537
    42   1     1.37500     0.79386     4.49073
    43   2     0.00000    -1.58771     4.49073
    44   1    -1.37500     0.79386     4.49073
    45   1     1.37500    -0.79386    -4.49073
    46   2    -1.37500    -0.79386    -4.49073
    47   1     0.00000     1.58771    -4.49073
    48   2     2.75000     1.58771     2.24537
    49   1     0.00000     3.17543    -2.24537
    50   1    -2.75000     1.58771     2.24537
    51   1    -2.75000    -1.58771    -2.24537
    52   3     0.00000    -3.17543     2.24537
    53   3     2.75000    -1.58771    -2.24537
    54   2     8.25000    -0.00000     0.00000
    55   1     4.12500     7.14471     0.00000
    56   2    -4.12500     7.14471     0.00000
    57   1    -4.12500    -7.14471     0.00000
    58   2     4.12500    -7.14471     0.00000
    59   2     4.12500    -2.38157     6.73610
    60   1     0.00000     4.76314     6.73610
    61   2    -4.12500    -2.38157     6.73610
    62   3     0.00000    -4.76314    -6.73610
    63   2     4.12500     2.38157    -6.73610
    64   2    -4.12500     2.38157    -6.73610
    65   2     6.87500     2.38157     0.00000
    66   3     6.87500    -0.79386     2.24537
    67   1     6.87500     0.79386    -2.24537
    68   2     1.37500     7.14471     0.00000
    69   3     2.75000     6.35085     2.24537
    70   3     4.12500     5.55700    -2.24537
    71   2    -5.50000     4.76314     0.00000
    72   1    -2.75000     6.35085     2.24537
    73   2    -4.12500     5.55700    -2.24537
    74   2    -6.87500    -2.38157     0.00000
    75   1    -6.87500    -0.79386     2.24537
    76   2    -6.87500     0.79386    -2.24537
    77   2    -4.12500    -5.55700     2.24537
    78   2    -2.75000    -6.35085    -2.24537
    79   1     5.50000    -4.76314     0.00000
    80   2     4.12500    -5.55700     2.24537
    81   3     2.75000    -6.35085    -2.24537
    82   1     2.75000    -0.00000     6.73610
    83   2     1.37500    -2.38157     6.73610
    84   2    -1.37500     2.38157     6.73610
    85   1     1.37500    -2.38157    -6.73610
    86   1    -1.37500    -2.38157    -6.73610
    87   1     5.50000     4.76314     0.00000
    88   1     5.50000    -1.58771     4.49073
    89   3     5.50000     1.58771    -4.49073
    90   2    -1.37500     7.14471     0.00000
    91   1     4.12500     3.96928    -4.49073
    92   1    -6.87500     2.38157     0.00000
    93   2    -1.37500     5.55700     4.49073
    94   2    -4.12500     3.96928    -4.49073
    95   3    -5.50000    -4.76314     0.00000
    96   3    -5.50000    -1.58771     4.49073
    97   3    -5.50000     1.58771    -4.49073
    98   2     1.37500    -7.14471     0.00000
    99   3    -4.12500    -3.96928     4.49073
   100   1    -1.37500    -5.55700    -4.49073
   101   1     6.87500    -2.38157     0.00000
   102   1     4.12500    -3.96928     4.49073
   103   1     1.37500    -5.55700    -4.49073
   104   2     1.37500     2.38157     6.73610
   105   1    -1.37500    -2.38157     6.73610
   106   2     2.75000    -0.00000    -6.73610
   107   2    -2.75000    -0.00000    -6.73610
   108   2    -1.37500     2.38157    -6.73610
   109   2     5.50000     3.17543    -2.24537
   110   2     0.00000     6.35085     2.24537
   111   1    -5.50000     3.17543    -2.24537
   112   3    -5.50000    -3.17543     2.24537
   113   2     0.00000    -6.35085    -2.24537
   114   2     5.50000    -3.17543     2.24537
   115   1     0.00000    -0.00000     6.73610
   116   2     0.00000    -0.00000    -6.73610
   117   1     5.50000     1.58771     2.24537
   118   1     1.37500     5.55700    -2.24537
   119   2    -4.12500     3.96928     2.24537
   120   2    -1.37500    -5.55700     2.24537
   121   3     4.12500    -3.96928    -2.24537
   122   1     4.12500     0.79386     4.49073
   123   1     1.37500     3.96928    -4.49073
   124   2    -2.75000     3.17543     4.49073
   125   2    -4.12500    -0.79386    -4.49073
   126   2    -1.37500    -3.96928     4.49073
   127   1     2.75000    -3.17543    -4.49073
   128   2     4.12500     3.96928     2.24537
   129   3    -1.37500     5.55700    -2.24537
   130   2    -5.50000     1.58771     2.24537
   131   3    -4.12500    -3.96928    -2.24537
   132   2     1.37500    -5.55700     2.24537
   133   1     5.50000    -1.58771    -2.24537
   134   3     2.75000     3.17543     4.49073
   135   3    -1.37500     3.96928    -4.49073
   136   1    -4.12500     0.79386     4.49073
   137   2    -2.75000    -3.17543    -4.49073
   138   2     1.37500    -3.96928     4.49073
   139   2    11.00000    -0.00000     0.00000
   140   1     5.50000     9.52628     0.00000
   141   3    -5.50000     9.52628     0.00000
   142   2   -11.00000    -0.00000     0.00000
   143   2    -5.50000    -9.52628     0.00000
   144   1     5.50000    -9.52628     0.00000
   145   2     5.50000    -3.17543     8.98146
   146   2     0.00000     6.35085     8.98146
   147   2    -5.50000    -3.17543     8.98146
   148   3     0.00000    -6.35085    -8.98146
   149   1     5.50000     3.17543    -8.98146
   150   2    -5.50000     3.17543    -8.98146
   151   2     9.62500     2.38157     0.00000
   152   2     9.62500    -0.79386     2.24537
   153   1     9.62500     0.79386    -2.24537
   154   1     2.75000     9.52628     0.00000
   155   1     4.12500     8.73242     2.24537
   156   2     5.50000     7.93857    -2.24537
   157   2    -6.87500     7.14471     0.00000
   158   1    -4.12500     8.73242     2.24537
   159   1    -5.50000     7.93857    -2.24537
   160   3    -9.62500    -2.38157     0.00000
   161   2    -9.62500    -0.79386     2.24537
   162   3    -2.75000    -9.52628     0.00000
   163   1    -5.50000    -7.93857     2.24537
   164   1    -4.12500    -8.73242    -2.24537
   165   2     5.50000    -7.93857     2.24537
   166   1     4.12500    -8.73242    -2.24537
   167   2     4.12500    -0.79386     8.98146
   168   2     2.75000    -3.17543     8.98146
   169   2    -1.37500     3.96928     8.98146
   170   2     1.37500    -3.96928    -8.98146
   171   2    -1.37500    -3.96928    -8.98146
   172   2     2.75000     3.17543    -8.98146
   173   3     8.25000     4.76314     0.00000
   174   1     8.25000    -1.58771     4.49073
   175   3     8.25000     1.58771    -4.49073
   176   3     0.00000     9.52628     0.00000
   177   3     2.75000     7.93857     4.49073
   178   2     5.50000     6.35085    -4.49073
   179   3    -8.25000     4.76314     0.00000
   180   1    -5.50000     6.35085    -4.49073
   181   1    -8.25000    -4.76314     0.00000
   182   1    -8.25000    -1.58771     4.49073
   183   2    -8.25000     1.58771    -4.49073
   184   1     0.00000    -9.52628     0.00000
   185   1    -5.50000    -6.35085     4.49073
   186   3    -2.75000    -7.93857    -4.49073
   187   3     8.25000    -4.76314     0.00000
   188   2     5.50000    -6.35085     4.49073
   189   1     2.75000    -7.93857    -4.49073
   190   1     0.00000    -3.17543     8.98146
   191   2    -2.75000     1.58771     8.98146
   192   2     2.75000    -1.58771    -8.98146
   193   2    -2.75000    -1.58771    -8.98146
   194   3     0.00000     3.17543    -8.98146
   195   2     6.87500     7.14471     0.00000
   196   3     6.87500    -2.38157     6.73610
   197   1     6.87500     2.38157    -6.73610
   198   2    -2.75000     9.52628     0.00000
   199   3     1.37500     7.14471     6.73610
   200   1     5.50000     4.76314    -6.73610
   201   2    -9.62500     2.38157     0.00000
   202   1    -1.37500     7.14471     6.73610
   203   2    -5.50000     4.76314    -6.73610
   204   1    -6.87500    -7.14471     0.00000
   205   2    -6.87500    -2.38157     6.73610
   206   3    -6.87500     2.38157    -6.73610
   207   2     2.75000    -9.52628     0.00000
   208   3    -5.50000    -4.76314     6.73610
   209   1    -1.37500    -7.14471    -6.73610
   210   2     9.62500    -2.38157     0.00000
   211   1     5.50000    -4.76314     6.73610
   212   3     1.37500    -7.14471    -6.73610
   213   2     1.37500     3.96928     8.98146
   214   2    -2.75000    -3.17543     8.98146
   215   3    -4.12500    -0.79386     8.98146
   216   3     4.12500     0.79386    -8.98146
   217   2    -4.12500     0.79386    -8.98146
   218   3    -2.75000     3.17543    -8.98146
   219   3     8.25000     3.17543    -2.24537
   220   1     1.37500     8.73242     2.24537
   221   2    -6.87500     5.55700    -2.24537
   222   2    -8.25000    -3.17543     2.24537
   223   2    -1.37500    -8.73242    -2.24537
   224   1     6.87500    -5.55700     2.24537
   225   1     0.00000    -1.58771    -8.98146
   226   2     6.87500     3.96928    -4.49073
   227   3     0.00000     7.93857     4.49073
   228   3    -6.87500     3.96928    -4.49073
   229   2    -6.87500    -3.96928     4.49073
   230   2     0.00000    -7.93857    -4.49073
   231   2     6.87500    -3.96928     4.49073
   232   1    -1.37500    -0.79386     8.98146
   233   3    -1.37500     0.79386    -8.98146
   234   3     8.25000     1.58771     2.24537
   235   2     2.75000     7.93857    -2.24537
   236   3    -5.50000     6.35085     2.24537
   237   2    -8.25000    -1.58771    -2.24537
   238   1    -2.75000    -7.93857     2.24537
   239   3     5.50000    -6.35085    -2.24537
   240   1     6.87500     0.79386     4.49073
   241   1     2.75000     6.35085    -4.49073
   242   2    -6.87500    -0.79386    -4.49073
   243   3    -2.75000    -6.35085     4.49073
   244   3     4.12500    -5.55700    -4.49073
   245   2     5.50000    -0.00000     6.73610
   246   3     2.75000     4.76314    -6.73610
   247   1    -2.75000     4.76314     6.73610
   248   1    -5.50000    -0.00000    -6.73610
   249   2    -2.75000    -4.76314     6.73610
   250   1     2.75000    -4.76314    -6.73610
   251   2     6.87500     5.55700    -2.24537
   252   1    -1.37500     8.73242     2.24537
   253   3    -8.25000     3.17543    -2.24537
   254   1     1.37500    -8.73242    -2.24537
   255   1     8.25000    -3.17543     2.24537
   256   3     0.00000     1.58771     8.98146
   257   2     1.37500     0.79386    -8.98146
   258   1     6.87500     3.96928     2.24537
   259   3     0.00000     7.93857    -2.24537
   260   3    -6.87500     3.96928     2.24537
   261   3    -6.87500    -3.96928    -2.24537
   262   3     0.00000    -7.93857     2.24537
   263   3     6.87500    -3.96928    -2.24537
   264   2     5.50000     3.17543     4.49073
   265   3     0.00000     6.35085    -4.49073
   266   1    -5.50000     3.17543     4.49073
   267   1    -5.50000    -3.17543    -4.49073
   268   2     0.00000    -6.35085     4.49073
   269   2     5.50000    -3.17543    -4.49073
   270   3     4.12500     2.38157     6.73610
   271   1    -4.12500     2.38157     6.73610
   272   1    -4.12500    -2.38157    -6.73610
   273   2     0.00000    -4.76314     6.73610
   274   2     4.12500    -2.38157    -6.73610
   275   2     5.50000     6.35085     2.24537
   276   2    -2.75000     7.93857    -2.24537
   277   2    -8.25000     1.58771     2.24537
   278   3    -5.50000    -6.35085    -2.24537
   279   1     2.75000    -7.93857     2.24537
   280   1     8.25000    -1.58771    -2.24537
   281   2     4.12500     5.55700     4.49073
   282   2    -2.75000     6.35085    -4.49073
   283   2    -4.12500    -5.55700    -4.49073
   284   1     2.75000    -6.35085     4.49073
   285   2     6.87500    -0.79386    -4.49073
   286   3     2.75000     4.76314     6.73610
   287   2    -2.75000     4.76314    -6.73610
   288   3    -2.75000    -4.76314    -6.73610
   289   1     2.75000    -4.76314     6.73610
   290   1     5.50000    -0.00000    -6.73610
   291   2    13.75000    -0.00000     0.00000
   292   3     6.87500    11.90785     0.00000
   293   2    -6.87500    11.90785     0.00000
   294   2    -6.87500   -11.90785     0.00000
   295   3     6.87500   -11.90785     0.00000
   296   2     6.87500    -3.96928    11.22683
   297   1     0.00000     7.93857    11.22683
   298   2    -6.87500    -3.96928    11.22683
   299   1     0.00000    -7.93857   -11.22683
   300   2     6.87500     3.96928   -11.22683
   301   2    -6.87500     3.96928   -11.22683
   302   3    12.37500     2.38157     0.00000
   303   2    12.37500    -0.79386     2.24537
   304   2    12.37500     0.79386    -2.24537
   305   2     4.12500    11.90785     0.00000
   306   2     5.50000    11.11399     2.24537
   307   1     6.87500    10.32014    -2.24537
   308   1    -8.25000     9.52628     0.00000
   309   1    -5.50000    11.11399     2.24537
   310   3    -6.87500    10.32014    -2.24537
   311   2   -12.37500    -2.38157     0.00000
   312   2   -12.37500    -0.79386     2.24537
   313   1   -12.37500     0.79386    -2.24537
   314   2    -4.12500   -11.90785     0.00000
   315   1    -6.87500   -10.32014     2.24537
   316   2    -5.50000   -11.11399    -2.24537
   317   1     8.25000    -9.52628     0.00000
   318   2     6.87500   -10.32014     2.24537
   319   2     5.50000    -1.58771    11.22683
   320   2     4.12500    -3.96928    11.22683
   321   1    -1.37500     5.55700    11.22683
   322   1     1.37500    -5.55700   -11.22683
   323   2    -1.37500    -5.55700   -11.22683
   324   2     4.12500     3.96928   -11.22683
   325   1    11.00000     4.76314     0.00000
   326   3    11.00000    -1.58771     4.49073
   327   3    11.00000     1.58771    -4.49073
   328   1     1.37500    11.90785     0.00000
   329   1     4.12500    10.32014     4.49073
   330   1     6.87500     8.73242    -4.49073
   331   2    -9.62500     7.14471     0.00000
   332   1    -4.12500    10.32014     4.49073
   333   2    -6.87500     8.73242    -4.49073
   334   1   -11.00000    -4.76314     0.00000
   335   3   -11.00000    -1.58771     4.49073
   336   3   -11.00000     1.58771    -4.49073
   337   3    -1.37500   -11.90785     0.00000
   338   2    -6.87500    -8.73242     4.49073
   339   2    -4.12500   -10.32014    -4.49073
   340   1     9.62500    -7.14471     0.00000
   341   1     6.87500    -8.73242     4.49073
   342   3     4.12500     0.79386    11.22683
   343   3     1.37500    -3.96928    11.22683
   344   2    -2.75000     3.17543    11.22683
   345   2     2.75000    -3.17543   -11.22683
   346   2    -2.75000    -3.17543   -11.22683
   347   2     1.37500     3.96928   -11.22683
   348   1     9.62500     7.14471     0.00000
   349   2     9.62500    -2.38157     6.73610
   350   2     9.62500     2.38157    -6.73610
   351   2    -1.37500    11.90785     0.00000
   352   3     2.75000     9.52628     6.73610
   353   2     6.87500     7.14471    -6.73610
   354   1   -11.00000     4.76314     0.00000
   355   1    -2.75000     9.52628     6.73610
   356   2    -6.87500     7.14471    -6.73610
   357   1    -9.62500    -7.14471     0.00000
   358   1    -9.62500    -2.38157     6.73610
   359   1    -9.62500     2.38157    -6.73610
   360   3     1.37500   -11.90785     0.00000
   361   1    -6.87500    -7.14471     6.73610
   362   2    -2.75000    -9.52628    -6.73610
   363   2     6.87500    -7.14471     6.73610
   364   2     2.75000    -9.52628    -6.73610
   365   2     2.75000     3.17543    11.22683
   366   1    -1.37500    -3.96928    11.22683
   367   2    -4.12500     0.79386    11.22683
   368   1     4.12500    -0.79386   -11.22683
   369   2    -4.12500    -0.79386   -11.22683
   370   2    -1.37500     3.96928   -11.22683
   371   1     8.25000     9.52628     0.00000
   372   2     8.25000    -3.17543     8.98146
   373   3     8.25000     3.17543    -8.98146
   374   2    -4.12500    11.90785     0.00000
   375   1     1.37500     8.73242     8.98146
   376   2     6.87500     5.55700    -8.98146
   377   2   -12.37500     2.38157     0.00000
   378   2    -1.37500     8.73242     8.98146
   379   3    -6.87500     5.55700    -8.98146
   380   3    -8.25000    -9.52628     0.00000
   381   1    -8.25000    -3.17543     8.98146
   382   2    -8.25000     3.17543    -8.98146
   383   3     4.12500   -11.90785     0.00000
   384   2    -6.87500    -5.55700     8.98146
   385   3    -1.37500    -8.73242    -8.98146
   386   1    12.37500    -2.38157     0.00000
   387   2     6.87500    -5.55700     8.98146
   388   1     1.37500    -8.73242    -8.98146
   389   2     1.37500     5.55700    11.22683
   390   2    -4.12500    -3.96928    11.22683
   391   2    -5.50000    -1.58771    11.22683
   392   1     5.50000     1.58771   -11.22683
   393   2    -5.50000     1.58771   -11.22683
   394   1    -4.12500     3.96928   -11.22683
   395   1    11.00000     3.17543    -2.24537
   396   3     2.75000    11.11399     2.24537
   397   1    -8.25000     7.93857    -2.24537
   398   2   -11.00000    -3.17543     2.24537
   399   1    -2.75000   -11.11399    -2.24537
   400   2     8.25000    -7.93857     2.24537
   401   3     2.75000    -1.58771    11.22683
   402   2     0.00000    -3.17543   -11.22683
   403   1     9.62500     3.96928    -4.49073
   404   2     1.37500    10.32014     4.49073
   405   1    -8.25000     6.35085    -4.49073
   406   2    -9.62500    -3.96928     4.49073
   407   2    -1.37500   -10.32014    -4.49073
   408   2     8.25000    -6.35085     4.49073
   409   3     0.00000    -1.58771    11.22683
   410   1    -1.37500    -0.79386   -11.22683
   411   2     8.25000     4.76314    -6.73610
   412   2     0.00000     9.52628     6.73610
   413   2    -8.25000     4.76314    -6.73610
   414   1    -8.25000    -4.76314     6.73610
   415   3     0.00000    -9.52628    -6.73610
   416   3     8.25000    -4.76314     6.73610
   417   2    -2.75000    -1.58771    11.22683
   418   2    -2.75000     1.58771   -11.22683
   419   3    11.00000     1.58771     2.24537
   420   2    -6.87500     8.73242     2.24537
   421   2   -11.00000    -1.58771    -2.24537
   422   2    -4.12500   -10.32014     2.24537
   423   1     6.87500    -8.73242    -2.24537
   424   2     9.62500     0.79386     4.49073
   425   1     4.12500     8.73242    -4.49073
   426   3    -5.50000     7.93857     4.49073
   427   2    -9.62500    -0.79386    -4.49073
   428   1    -4.12500    -8.73242     4.49073
   429   1     5.50000    -7.93857    -4.49073
   430   3     8.25000    -0.00000     6.73610
   431   2     4.12500     7.14471    -6.73610
   432   1    -4.12500     7.14471     6.73610
   433   2    -8.25000    -0.00000    -6.73610
   434   1    -4.12500    -7.14471     6.73610
   435   1     4.12500    -7.14471    -6.73610
   436   1     6.87500    -0.79386     8.98146
   437   2     4.12500     5.55700    -8.98146
   438   1    -2.75000     6.35085     8.98146
   439   1    -6.87500     0.79386    -8.98146
   440   2    -4.12500    -5.55700     8.98146
   441   2     2.75000    -6.35085    -8.98146
   442   3     9.62500     5.55700    -2.24537
   443   2     0.00000    11.11399     2.24537
   444   2    -9.62500     5.55700    -2.24537
   445   2    -9.62500    -5.55700     2.24537
   446   2     0.00000   -11.11399    -2.24537
   447   1     9.62500    -5.55700     2.24537
   448   3     1.37500     0.79386    11.22683
   449   2     1.37500    -0.79386   -11.22683
   450   2     8.25000     6.35085    -4.49073
   451   2    -1.37500    10.32014     4.49073
   452   3    -9.62500     3.96928    -4.49073
   453   3    -8.25000    -6.35085     4.49073
   454   3     1.37500   -10.32014    -4.49073
   455   2     9.62500    -3.96928     4.49073
   456   2    -1.37500     0.79386    11.22683
   457   2     0.00000     1.58771   -11.22683
   458   2     9.62500     3.96928     2.24537
   459   2     1.37500    10.32014    -2.24537
   460   2    -8.25000     6.35085     2.24537
   461   2    -9.62500    -3.96928    -2.24537
   462   3    -1.37500   -10.32014     2.24537
   463   2     8.25000    -6.35085    -2.24537
   464   2     8.25000     3.17543     4.49073
   465   3    -6.87500     5.55700     4.49073
   466   3    -1.37500    -8.73242     4.49073
   467   2     6.87500    -5.55700    -4.49073
   468   2     6.87500     2.38157     6.73610
   469   2     1.37500     7.14471    -6.73610
   470   2    -5.50000     4.76314     6.73610
   471   2    -6.87500    -2.38157    -6.73610
   472   1    -1.37500    -7.14471     6.73610
   473   2     5.50000    -4.76314    -6.73610
   474   3     5.50000     1.58771     8.98146
   475   2     1.37500     5.55700    -8.98146
   476   3    -4.12500     3.96928     8.98146
   477   3    -5.50000    -1.58771    -8.98146
   478   2    -1.37500    -5.55700     8.98146
   479   1     4.12500    -3.96928    -8.98146
   480   2     8.25000     7.93857    -2.24537
   481   3    -2.75000    11.11399     2.24537
   482   1   -11.00000     3.17543    -2.24537
   483   3    -8.25000    -7.93857     2.24537
   484   2     2.75000   -11.11399    -2.24537
   485   2    11.00000    -3.17543     2.24537
   486   3     0.00000     3.17543    11.22683
   487   2     2.75000     1.58771   -11.22683
   488   2     8.25000     6.35085     2.24537
   489   2    -1.37500    10.32014    -2.24537
   490   3    -8.25000    -6.35085    -2.24537
   491   2     1.37500   -10.32014     2.24537
   492   2     9.62500    -3.96928    -2.24537
   493   2     6.87500     5.55700     4.49073
   494   2    -1.37500     8.73242    -4.49073
   495   2    -8.25000     3.17543     4.49073
   496   2    -6.87500    -5.55700    -4.49073
   497   2     1.37500    -8.73242     4.49073
   498   1     8.25000    -3.17543    -4.49073
   499   1     5.50000     4.76314     6.73610
   500   2    -1.37500     7.14471    -6.73610
   501   2    -6.87500     2.38157     6.73610
   502   1    -5.50000    -4.76314    -6.73610
   503   1     1.37500    -7.14471     6.73610
   504   2     6.87500    -2.38157    -6.73610
   505   2     4.12500     3.96928     8.98146
   506   2    -1.37500     5.55700    -8.98146
   507   2    -5.50000     1.58771     8.98146
   508   2    -4.12500    -3.96928    -8.98146
   509   1     1.37500    -5.55700     8.98146
   510   2     5.50000    -1.58771    -8.98146
   511   2     6.87500     8.73242     2.24537
   512   1    -4.12500    10.32014    -2.24537
   513   1   -11.00000     1.58771     2.24537
   514   1    -6.87500    -8.73242    -2.24537
   515   3     4.12500   -10.32014     2.24537
   516   1    11.00000    -1.58771    -2.24537
   517   2     5.50000     7.93857     4.49073
   518   3    -4.12500     8.73242    -4.49073
   519   2    -9.62500     0.79386     4.49073
   520   2    -5.50000    -7.93857    -4.49073
   521   3     4.12500    -8.73242     4.49073
   522   1     9.62500    -0.79386    -4.49073
   523   2     4.12500     7.14471     6.73610
   524   2    -4.12500     7.14471    -6.73610
   525   1    -8.25000    -0.00000     6.73610
   526   2    -4.12500    -7.14471    -6.73610
   527   3     4.12500    -7.14471     6.73610
   528   3     8.25000    -0.00000    -6.73610
   529   2     2.75000     6.35085     8.98146
   530   1    -4.12500     5.55700    -8.98146
   531   2    -6.87500    -0.79386     8.98146
   532   1    -2.75000    -6.35085    -8.98146
   533   3     4.12500    -5.55700     8.98146
   534   1     6.87500     0.79386    -8.98146
   535   2    16.50000    -0.00000     0.00000
   536   2     8.25000    14.28942     0.00000
   537   2    -8.25000    14.28942     0.00000
   538   2   -16.50000    -0.00000     0.00000
   539   2    -8.25000   -14.28942     0.00000
   540   3     8.25000   -14.28942     0.00000
   541   1     8.25000    -4.76314    13.47219
   542   2     0.00000     9.52628    13.47219
   543   2    -8.25000    -4.76314    13.47219
   544   1     0.00000    -9.52628   -13.47219
   545   3     8.25000     4.76314   -13.47219
   546   3    -8.25000     4.76314   -13.47219
   547   1    15.12500     2.38157     0.00000
   548   1    15.12500    -0.79386     2.24537
   549   2    15.12500     0.79386    -2.24537
   550   3     5.50000    14.28942     0.00000
   551   2     6.87500    13.49556     2.24537
   552   2     8.25000    12.70171    -2.24537
   553   1    -9.62500    11.90785     0.00000
   554   1    -6.87500    13.49556     2.24537
   555   3   -15.12500    -2.38157     0.00000
   556   2   -15.12500    -0.79386     2.24537
   557   2   -15.12500     0.79386    -2.24537
   558   1    -5.50000   -14.28942     0.00000
   559   1    -8.25000   -12.70171     2.24537
   560   3    -6.87500   -13.49556    -2.24537
   561   3     9.62500   -11.90785     0.00000
   562   3     6.87500   -13.49556    -2.24537
   563   2     6.87500    -2.38157    13.47219
   564   1     5.50000    -4.76314    13.47219
   565   2    -1.37500     7.14471    13.47219
   566   3     1.37500    -7.14471   -13.47219
   567   3    -1.37500    -7.14471   -13.47219
   568   2     5.50000     4.76314   -13.47219
   569   1    13.75000    -1.58771     4.49073
   570   2    13.75000     1.58771    -4.49073
   571   3     2.75000    14.28942     0.00000
   572   2     5.50000    12.70171     4.49073
   573   1     8.25000    11.11399    -4.49073
   574   2   -11.00000     9.52628     0.00000
   575   1    -5.50000    12.70171     4.49073
   576   1    -8.25000    11.11399    -4.49073
   577   2   -13.75000    -4.76314     0.00000
   578   1   -13.75000    -1.58771     4.49073
   579   3   -13.75000     1.58771    -4.49073
   580   2    -2.75000   -14.28942     0.00000
   581   3    -8.25000   -11.11399     4.49073
   582   2    -5.50000   -12.70171    -4.49073
   583   3    11.00000    -9.52628     0.00000
   584   3     5.50000   -12.70171    -4.49073
   585   3     5.50000    -0.00000    13.47219
   586   3     2.75000    -4.76314    13.47219
   587   1    -2.75000     4.76314    13.47219
   588   2     2.75000    -4.76314   -13.47219
   589   2    -2.75000    -4.76314   -13.47219
   590   3     2.75000     4.76314   -13.47219
   591   2    12.37500     7.14471     0.00000
   592   3    12.37500    -2.38157     6.73610
   593   2    12.37500     2.38157    -6.73610
   594   2     0.00000    14.28942     0.00000
   595   1     4.12500    11.90785     6.73610
   596   2     8.25000     9.52628    -6.73610
   597   2   -12.37500     7.14471     0.00000
   598   1    -4.12500    11.90785     6.73610
   599   2    -8.25000     9.52628    -6.73610
   600   2   -12.37500    -7.14471     0.00000
   601   2   -12.37500    -2.38157     6.73610
   602   1   -12.37500     2.38157    -6.73610
   603   2     0.00000   -14.28942     0.00000
   604   2    -8.25000    -9.52628     6.73610
   605   1    -4.12500   -11.90785    -6.73610
   606   3    12.37500    -7.14471     0.00000
   607   2     8.25000    -9.52628     6.73610
   608   3     4.12500   -11.90785    -6.73610
   609   1     4.12500     2.38157    13.47219
   610   3     0.00000    -4.76314    13.47219
   611   2    -4.12500     2.38157    13.47219
   612   1     4.12500    -2.38157   -13.47219
   613   1    -4.12500    -2.38157   -13.47219
   614   2     0.00000     4.76314   -13.47219
   615   1    11.00000     9.52628     0.00000
   616   2    11.00000    -3.17543     8.98146
   617   2    11.00000     3.17543    -8.98146
   618   2    -2.75000    14.28942     0.00000
   619   2     2.75000    11.11399     8.98146
   620   3     8.25000     7.93857    -8.98146
   621   2   -13.75000     4.76314     0.00000
   622   3    -2.75000    11.11399     8.98146
   623   1    -8.25000     7.93857    -8.98146
   624   2   -11.00000    -9.52628     0.00000
   625   2   -11.00000    -3.17543     8.98146
   626   3   -11.00000     3.17543    -8.98146
   627   2     2.75000   -14.28942     0.00000
   628   1    -8.25000    -7.93857     8.98146
   629   3    -2.75000   -11.11399    -8.98146
   630   2    13.75000    -4.76314     0.00000
   631   1     8.25000    -7.93857     8.98146
   632   3     2.75000   -11.11399    -8.98146
   633   3     2.75000     4.76314    13.47219
   634   1    -2.75000    -4.76314    13.47219