LAMMPS DATA FOR MEAM SIMULATION

   3398   atoms
      3   atom types

  -33.82   33.82   xlo xhi
  -33.82   33.82   ylo yhi
  -33.82   33.82   zlo zhi

 Atoms

     1   2     0.00000     0.00000    -0.00000
     2   3     2.75000     0.00000    -0.00000
     3   2     1.37500     2.38157    -0.00000
     4   1    -2.75000     0.00000    -0.00000
     5   3    -1.37500    -2.38157    -0.00000
     6   2     1.37500    -2.38157    -0.00000
     7   2     1.37500    -0.79386     2.24537
     8   2     0.00000     1.58771     2.24537
     9   2    -1.37500    -0.79386     2.24537
    10   1     1.37500     0.79386    -2.24537
    11   1     5.50000     0.00000    -0.00000
    12   1     2.75000     4.76314    -0.00000
    13   3    -2.75000     4.76314    -0.00000
    14   2    -5.50000     0.00000    -0.00000
    15   2    -2.75000    -4.76314    -0.00000
    16   3     2.75000    -4.76314    -0.00000
    17   2     2.75000    -1.58771     4.49073
    18   2     0.00000     3.17543     4.49073
    19   2    -2.75000    -1.58771     4.49073
    20   2     0.00000    -3.17543    -4.49073
    21   3     2.75000     1.58771    -4.49073
    22   3    -2.75000     1.58771    -4.49073
    23   1     4.12500     2.38157    -0.00000
    24   3     4.12500     0.79386    -2.24537
    25   1     0.00000     4.76314    -0.00000
    26   1     1.37500     3.96928     2.24537
    27   2     2.75000     3.17543    -2.24537
    28   1    -4.12500     2.38157    -0.00000
    29   2    -1.37500     3.96928     2.24537
    30   1    -2.75000     3.17543    -2.24537
    31   1    -4.12500    -2.38157    -0.00000
    32   1    -4.12500    -0.79386     2.24537
    33   1    -4.12500     0.79386    -2.24537
    34   3     0.00000    -4.76314    -0.00000
    35   2    -2.75000    -3.17543     2.24537
    36   2    -1.37500    -3.96928    -2.24537
    37   3     4.12500    -2.38157    -0.00000
    38   2     2.75000    -3.17543     2.24537
    39   2     1.37500    -3.96928    -2.24537
    40   3     1.37500     0.79386     4.49073
    41   1    -1.37500     0.79386     4.49073
    42   1    -1.37500    -0.79386    -4.49073
    43   2     0.00000     1.58771    -4.49073
    44   3     0.00000     3.17543    -2.24537
    45   1    -2.75000     1.58771     2.24537
    46   3    -2.75000    -1.58771    -2.24537
    47   2     0.00000    -3.17543     2.24537
    48   2     2.75000    -1.58771    -2.24537
    49   2     8.25000     0.00000    -0.00000
    50   1     4.12500     7.14471    -0.00000
    51   1    -4.12500     7.14471    -0.00000
    52   1    -8.25000     0.00000    -0.00000
    53   1    -4.12500    -7.14471    -0.00000
    54   3     4.12500    -7.14471    -0.00000
    55   1     4.12500    -2.38157     6.73610
    56   2     0.00000     4.76314     6.73610
    57   2    -4.12500    -2.38157     6.73610
    58   3     0.00000    -4.76314    -6.73610
    59   2     4.12500     2.38157    -6.73610
    60   3    -4.12500     2.38157    -6.73610
    61   3     6.87500     2.38157    -0.00000
    62   1     6.87500    -0.79386     2.24537
    63   3     6.87500     0.79386    -2.24537
    64   3     1.37500     7.14471    -0.00000
    65   1     2.75000     6.35085     2.24537
    66   3     4.12500     5.55700    -2.24537
    67   1    -5.50000     4.76314    -0.00000
    68   3    -2.75000     6.35085     2.24537
    69   1    -4.12500     5.55700    -2.24537
    70   3    -6.87500    -2.38157    -0.00000
    71   1    -6.87500    -0.79386     2.24537
    72   1    -6.87500     0.79386    -2.24537
    73   1    -1.37500    -7.14471    -0.00000
    74   3    -4.12500    -5.55700     2.24537
    75   1    -2.75000    -6.35085    -2.24537
    76   2     4.12500    -5.55700     2.24537
    77   3     2.75000    -6.35085    -2.24537
    78   2     2.75000     0.00000     6.73610
    79   3     1.37500    -2.38157     6.73610
    80   2    -1.37500     2.38157     6.73610
    81   3     1.37500    -2.38157    -6.73610
    82   1     5.50000     4.76314    -0.00000
    83   2     5.50000    -1.58771     4.49073
    84   3     5.50000     1.58771    -4.49073
    85   2    -1.37500     7.14471    -0.00000
    86   3     1.37500     5.55700     4.49073
    87   1     4.12500     3.96928    -4.49073
    88   2    -6.87500     2.38157    -0.00000
    89   2    -1.37500     5.55700     4.49073
    90   2    -4.12500     3.96928    -4.49073
    91   3    -5.50000    -4.76314    -0.00000
    92   2    -5.50000    -1.58771     4.49073
    93   1    -5.50000     1.58771    -4.49073
    94   2     1.37500    -7.14471    -0.00000
    95   2    -4.12500    -3.96928     4.49073
    96   1    -1.37500    -5.55700    -4.49073
    97   1     6.87500    -2.38157    -0.00000
    98   2     4.12500    -3.96928     4.49073
    99   1     1.37500    -5.55700    -4.49073
   100   1     1.37500     2.38157     6.73610
   101   1    -1.37500    -2.38157     6.73610
   102   2    -2.75000     0.00000     6.73610
   103   2     2.75000     0.00000    -6.73610
   104   2    -2.75000     0.00000    -6.73610
   105   2    -1.37500     2.38157    -6.73610
   106   1     5.50000     3.17543    -2.24537
   107   2     0.00000     6.35085     2.24537
   108   3    -5.50000     3.17543    -2.24537
   109   2    -5.50000    -3.17543     2.24537
   110   1     0.00000    -6.35085    -2.24537
   111   2     5.50000    -3.17543     2.24537
   112   2     0.00000     0.00000     6.73610
   113   2     0.00000     0.00000    -6.73610
   114   1     5.50000     1.58771     2.24537
   115   3     1.37500     5.55700    -2.24537
   116   2    -4.12500     3.96928     2.24537
   117   1    -5.50000    -1.58771    -2.24537
   118   1    -1.37500    -5.55700     2.24537
   119   1     4.12500    -3.96928    -2.24537
   120   1     4.12500     0.79386     4.49073
   121   2     1.37500     3.96928    -4.49073
   122   2    -2.75000     3.17543     4.49073
   123   3    -4.12500    -0.79386    -4.49073
   124   2    -1.37500    -3.96928     4.49073
   125   1     2.75000    -3.17543    -4.49073
   126   3     4.12500     3.96928     2.24537
   127   3    -5.50000     1.58771     2.24537
   128   2    -4.12500    -3.96928    -2.24537
   129   1     1.37500    -5.55700     2.24537
   130   2     5.50000    -1.58771    -2.24537
   131   3     2.75000     3.17543     4.49073
   132   1    -1.37500     3.96928    -4.49073
   133   1    -4.12500     0.79386     4.49073
   134   2    -2.75000    -3.17543    -4.49073
   135   2     1.37500    -3.96928     4.49073
   136   1     4.12500    -0.79386    -4.49073
   137   2    11.00000     0.00000    -0.00000
   138   3     5.50000     9.52628    -0.00000
   139   1    -5.50000     9.52628    -0.00000
   140   2   -11.00000     0.00000    -0.00000
   141   1    -5.50000    -9.52628    -0.00000
   142   1     5.50000    -9.52628    -0.00000
   143   2     0.00000     6.35085     8.98146
   144   2    -5.50000    -3.17543     8.98146
   145   2     0.00000    -6.35085    -8.98146
   146   3     5.50000     3.17543    -8.98146
   147   1    -5.50000     3.17543    -8.98146
   148   3     9.62500     2.38157    -0.00000
   149   2     9.62500    -0.79386     2.24537
   150   2     9.62500     0.79386    -2.24537
   151   1     2.75000     9.52628    -0.00000
   152   1     4.12500     8.73242     2.24537
   153   2     5.50000     7.93857    -2.24537
   154   2    -6.87500     7.14471    -0.00000
   155   1    -4.12500     8.73242     2.24537
   156   1    -9.62500    -2.38157    -0.00000
   157   2    -9.62500    -0.79386     2.24537
   158   1    -9.62500     0.79386    -2.24537
   159   3    -2.75000    -9.52628    -0.00000
   160   2    -5.50000    -7.93857     2.24537
   161   3    -4.12500    -8.73242    -2.24537
   162   1     6.87500    -7.14471    -0.00000
   163   3     5.50000    -7.93857     2.24537
   164   2     4.12500    -8.73242    -2.24537
   165   2     4.12500    -0.79386     8.98146
   166   3     2.75000    -3.17543     8.98146
   167   2    -1.37500     3.96928     8.98146
   168   2     1.37500    -3.96928    -8.98146
   169   1    -1.37500    -3.96928    -8.98146
   170   2     2.75000     3.17543    -8.98146
   171   2     8.25000     4.76314    -0.00000
   172   1     8.25000    -1.58771     4.49073
   173   3     8.25000     1.58771    -4.49073
   174   2     0.00000     9.52628    -0.00000
   175   1     2.75000     7.93857     4.49073
   176   3    -8.25000     4.76314    -0.00000
   177   3    -2.75000     7.93857     4.49073
   178   3    -8.25000    -4.76314    -0.00000
   179   3    -8.25000    -1.58771     4.49073
   180   3    -8.25000     1.58771    -4.49073
   181   1    -2.75000    -7.93857    -4.49073
   182   2     8.25000    -4.76314    -0.00000
   183   2     5.50000    -6.35085     4.49073
   184   2     2.75000    -7.93857    -4.49073
   185   2     2.75000     1.58771     8.98146
   186   3     0.00000    -3.17543     8.98146
   187   1    -2.75000     1.58771     8.98146
   188   2     2.75000    -1.58771    -8.98146
   189   2    -2.75000    -1.58771    -8.98146
   190   3     0.00000     3.17543    -8.98146
   191   2     6.87500     7.14471    -0.00000
   192   1     6.87500    -2.38157     6.73610
   193   3     6.87500     2.38157    -6.73610
   194   1     1.37500     7.14471     6.73610
   195   2    -9.62500     2.38157    -0.00000
   196   2    -5.50000     4.76314    -6.73610
   197   2    -6.87500    -7.14471    -0.00000
   198   3    -6.87500    -2.38157     6.73610
   199   1    -6.87500     2.38157    -6.73610
   200   3     2.75000    -9.52628    -0.00000
   201   3    -1.37500    -7.14471    -6.73610
   202   1     1.37500    -7.14471    -6.73610
   203   2    -2.75000    -3.17543     8.98146
   204   3    -4.12500    -0.79386     8.98146
   205   1     4.12500     0.79386    -8.98146
   206   2    -4.12500     0.79386    -8.98146
   207   1    -2.75000     3.17543    -8.98146
   208   3     8.25000     3.17543    -2.24537
   209   2     1.37500     8.73242     2.24537
   210   3    -6.87500     5.55700    -2.24537
   211   2    -8.25000    -3.17543     2.24537
   212   3    -1.37500    -8.73242    -2.24537
   213   1     6.87500    -5.55700     2.24537
   214   3     0.00000    -1.58771    -8.98146
   215   2     0.00000     7.93857     4.49073
   216   3    -6.87500     3.96928    -4.49073
   217   2     0.00000    -7.93857    -4.49073
   218   3     6.87500    -3.96928     4.49073
   219   1    -1.37500    -0.79386     8.98146
   220   2    -1.37500     0.79386    -8.98146
   221   3    -5.50000     6.35085     2.24537
   222   1    -8.25000    -1.58771    -2.24537
   223   2    -2.75000    -7.93857     2.24537
   224   3     6.87500     0.79386     4.49073
   225   2     2.75000     6.35085    -4.49073
   226   2    -4.12500     5.55700     4.49073
   227   3    -6.87500    -0.79386    -4.49073
   228   3    -2.75000    -6.35085     4.49073
   229   2     4.12500    -5.55700    -4.49073
   230   3     5.50000     0.00000     6.73610
   231   1     2.75000     4.76314    -6.73610
   232   3    -5.50000     0.00000    -6.73610
   233   2    -2.75000    -4.76314     6.73610
   234   2     2.75000    -4.76314    -6.73610
   235   1     6.87500     5.55700    -2.24537
   236   2    -1.37500     8.73242     2.24537
   237   1    -8.25000     3.17543    -2.24537
   238   2    -6.87500    -5.55700     2.24537
   239   2     1.37500    -8.73242    -2.24537
   240   1     8.25000    -3.17543     2.24537
   241   1     1.37500     0.79386    -8.98146
   242   2     6.87500     3.96928     2.24537
   243   3     0.00000     7.93857    -2.24537
   244   2    -6.87500     3.96928     2.24537
   245   3    -6.87500    -3.96928    -2.24537
   246   3     6.87500    -3.96928    -2.24537
   247   2     5.50000     3.17543     4.49073
   248   2     0.00000    -6.35085     4.49073
   249   1     5.50000    -3.17543    -4.49073
   250   1     4.12500     2.38157     6.73610
   251   2    -4.12500    -2.38157    -6.73610
   252   2     0.00000    -4.76314     6.73610
   253   2     5.50000     6.35085     2.24537
   254   1    -2.75000     7.93857    -2.24537
   255   2    -8.25000     1.58771     2.24537
   256   1    -5.50000    -6.35085    -2.24537
   257   2     2.75000    -7.93857     2.24537
   258   2     8.25000    -1.58771    -2.24537
   259   3     4.12500     5.55700     4.49073
   260   3    -2.75000     6.35085    -4.49073
   261   3    -6.87500     0.79386     4.49073
   262   3    -4.12500    -5.55700    -4.49073
   263   2     2.75000    -6.35085     4.49073
   264   1     2.75000     4.76314     6.73610
   265   2    -2.75000    -4.76314    -6.73610
   266   1     2.75000    -4.76314     6.73610
   267   1     5.50000     0.00000    -6.73610
   268   1    13.75000     0.00000    -0.00000
   269   1     6.87500    11.90785    -0.00000
   270   2    -6.87500    11.90785    -0.00000
   271   2   -13.75000     0.00000    -0.00000
   272   2    -6.87500   -11.90785    -0.00000
   273   2     6.87500   -11.90785    -0.00000
   274   1     6.87500    -3.96928    11.22683
   275   2     0.00000     7.93857    11.22683
   276   2    -6.87500    -3.96928    11.22683
   277   3     0.00000    -7.93857   -11.22683
   278   3     6.87500     3.96928   -11.22683
   279   3    -6.87500     3.96928   -11.22683
   280   2    12.37500     2.38157    -0.00000
   281   2     4.12500    11.90785    -0.00000
   282   2     5.50000    11.11399     2.24537
   283   1     6.87500    10.32014    -2.24537
   284   1    -8.25000     9.52628    -0.00000
   285   3    -5.50000    11.11399     2.24537
   286   3   -12.37500    -2.38157    -0.00000
   287   1   -12.37500    -0.79386     2.24537
   288   3   -12.37500     0.79386    -2.24537
   289   2    -4.12500   -11.90785    -0.00000
   290   1    -6.87500   -10.32014     2.24537
   291   1    -5.50000   -11.11399    -2.24537
   292   2     8.25000    -9.52628    -0.00000
   293   2     6.87500   -10.32014     2.24537
   294   2     5.50000   -11.11399    -2.24537
   295   3     5.50000    -1.58771    11.22683
   296   2     4.12500    -3.96928    11.22683
   297   2    -1.37500     5.55700    11.22683
   298   2     1.37500    -5.55700   -11.22683
   299   2    -1.37500    -5.55700   -11.22683
   300   1     4.12500     3.96928   -11.22683
   301   3    11.00000     4.76314    -0.00000
   302   2    11.00000    -1.58771     4.49073
   303   3     1.37500    11.90785    -0.00000
   304   2     4.12500    10.32014     4.49073
   305   2     6.87500     8.73242    -4.49073
   306   3    -9.62500     7.14471    -0.00000
   307   1    -4.12500    10.32014     4.49073
   308   3   -11.00000    -4.76314    -0.00000
   309   2   -11.00000    -1.58771     4.49073
   310   2   -11.00000     1.58771    -4.49073
   311   2    -1.37500   -11.90785    -0.00000
   312   2    -6.87500    -8.73242     4.49073
   313   2     9.62500    -7.14471    -0.00000
   314   3     6.87500    -8.73242     4.49073
   315   3     4.12500   -10.32014    -4.49073
   316   2     4.12500     0.79386    11.22683
   317   2     1.37500    -3.96928    11.22683
   318   2    -2.75000     3.17543    11.22683
   319   2     2.75000    -3.17543   -11.22683
   320   2    -2.75000    -3.17543   -11.22683
   321   2     1.37500     3.96928   -11.22683
   322   3     9.62500     7.14471    -0.00000
   323   2     9.62500    -2.38157     6.73610
   324   2     9.62500     2.38157    -6.73610
   325   1    -1.37500    11.90785    -0.00000
   326   3     2.75000     9.52628     6.73610
   327   2     6.87500     7.14471    -6.73610
   328   1   -11.00000     4.76314    -0.00000
   329   2    -2.75000     9.52628     6.73610
   330   2    -9.62500    -7.14471    -0.00000
   331   3    -9.62500    -2.38157     6.73610
   332   2    -9.62500     2.38157    -6.73610
   333   3     1.37500   -11.90785    -0.00000
   334   3    -6.87500    -7.14471     6.73610
   335   2    -2.75000    -9.52628    -6.73610
   336   2    11.00000    -4.76314    -0.00000
   337   2     6.87500    -7.14471     6.73610
   338   1     2.75000    -9.52628    -6.73610
   339   3     2.75000     3.17543    11.22683
   340   3     4.12500    -0.79386   -11.22683
   341   2    -4.12500    -0.79386   -11.22683
   342   2    -1.37500     3.96928   -11.22683
   343   2     8.25000     9.52628    -0.00000
   344   2     8.25000    -3.17543     8.98146
   345   3     8.25000     3.17543    -8.98146
   346   3    -4.12500    11.90785    -0.00000
   347   2     1.37500     8.73242     8.98146
   348   3     6.87500     5.55700    -8.98146
   349   2   -12.37500     2.38157    -0.00000
   350   1    -1.37500     8.73242     8.98146
   351   1    -6.87500     5.55700    -8.98146
   352   2    -8.25000    -9.52628    -0.00000
   353   1    -8.25000    -3.17543     8.98146
   354   3    -8.25000     3.17543    -8.98146
   355   2     4.12500   -11.90785    -0.00000
   356   2    -1.37500    -8.73242    -8.98146
   357   3    12.37500    -2.38157    -0.00000
   358   2     1.37500    -8.73242    -8.98146
   359   3    -5.50000    -1.58771    11.22683
   360   3     5.50000     1.58771   -11.22683
   361   3    11.00000     3.17543    -2.24537
   362   3     2.75000    11.11399     2.24537
   363   2   -11.00000    -3.17543     2.24537
   364   1    -2.75000   -11.11399    -2.24537
   365   2     8.25000    -7.93857     2.24537
   366   2     2.75000    -1.58771    11.22683
   367   1     0.00000    -3.17543   -11.22683
   368   2     9.62500     3.96928    -4.49073
   369   2     1.37500    10.32014     4.49073
   370   2    -8.25000     6.35085    -4.49073
   371   3    -9.62500    -3.96928     4.49073
   372   2    -1.37500   -10.32014    -4.49073
   373   3     8.25000    -6.35085     4.49073
   374   2     0.00000    -1.58771    11.22683
   375   2     8.25000     4.76314    -6.73610
   376   3     0.00000     9.52628     6.73610
   377   1    -8.25000     4.76314    -6.73610
   378   1     0.00000    -9.52628    -6.73610
   379   3     8.25000    -4.76314     6.73610
   380   1    -2.75000     1.58771   -11.22683
   381   1    11.00000     1.58771     2.24537
   382   2     4.12500    10.32014    -2.24537
   383   2    -6.87500     8.73242     2.24537
   384   3   -11.00000    -1.58771    -2.24537
   385   1     6.87500    -8.73242    -2.24537
   386   1     9.62500     0.79386     4.49073
   387   2     4.12500     8.73242    -4.49073
   388   1    -5.50000     7.93857     4.49073
   389   2    -9.62500    -0.79386    -4.49073
   390   2    -4.12500    -8.73242     4.49073
   391   2     5.50000    -7.93857    -4.49073
   392   1     8.25000     0.00000     6.73610
   393   3    -4.12500     7.14471     6.73610
   394   1    -8.25000     0.00000    -6.73610
   395   2     4.12500    -7.14471    -6.73610
   396   3     6.87500    -0.79386     8.98146
   397   2     4.12500     5.55700    -8.98146
   398   1    -2.75000     6.35085     8.98146
   399   1    -6.87500     0.79386    -8.98146
   400   3    -4.12500    -5.55700     8.98146
   401   2     2.75000    -6.35085    -8.98146
   402   3     9.62500     5.55700    -2.24537
   403   1     0.00000    11.11399     2.24537
   404   2    -9.62500     5.55700    -2.24537
   405   3    -9.62500    -5.55700     2.24537
   406   2     0.00000   -11.11399    -2.24537
   407   1     9.62500    -5.55700     2.24537
   408   3     1.37500     0.79386    11.22683
   409   1     1.37500    -0.79386   -11.22683
   410   2     8.25000     6.35085    -4.49073
   411   3    -1.37500    10.32014     4.49073
   412   2    -8.25000    -6.35085     4.49073
   413   2     1.37500   -10.32014    -4.49073
   414   3     9.62500    -3.96928     4.49073
   415   3    -1.37500     0.79386    11.22683
   416   3     0.00000     1.58771   -11.22683
   417   1     9.62500     3.96928     2.24537
   418   3     1.37500    10.32014    -2.24537
   419   2    -8.25000     6.35085     2.24537
   420   3    -9.62500    -3.96928    -2.24537
   421   2    -1.37500   -10.32014     2.24537
   422   1     8.25000    -6.35085    -2.24537
   423   1     8.25000     3.17543     4.49073
   424   3     1.37500     8.73242    -4.49073
   425   2    -6.87500     5.55700     4.49073
   426   3    -8.25000    -3.17543    -4.49073
   427   2    -1.37500    -8.73242     4.49073
   428   2     6.87500     2.38157     6.73610
   429   1     1.37500     7.14471    -6.73610
   430   1    -5.50000     4.76314     6.73610
   431   2    -6.87500    -2.38157    -6.73610
   432   1    -1.37500    -7.14471     6.73610
   433   2     5.50000    -4.76314    -6.73610
   434   2     5.50000     1.58771     8.98146
   435   3     1.37500     5.55700    -8.98146
   436   3    -4.12500     3.96928     8.98146
   437   1    -5.50000    -1.58771    -8.98146
   438   3    -1.37500    -5.55700     8.98146
   439   2     4.12500    -3.96928    -8.98146
   440   2     8.25000     7.93857    -2.24537
   441   2    -2.75000    11.11399     2.24537
   442   2   -11.00000     3.17543    -2.24537
   443   1    -8.25000    -7.93857     2.24537
   444   3     2.75000   -11.11399    -2.24537
   445   1    11.00000    -3.17543     2.24537
   446   2    -1.37500    10.32014    -2.24537
   447   2    -8.25000    -6.35085    -2.24537
   448   1     9.62500    -3.96928    -2.24537
   449   2     6.87500     5.55700     4.49073
   450   2    -8.25000     3.17543     4.49073
   451   3    -6.87500    -5.55700    -4.49073
   452   1     1.37500    -8.73242     4.49073
   453   2     8.25000    -3.17543    -4.49073
   454   2     5.50000     4.76314     6.73610
   455   2    -1.37500     7.14471    -6.73610
   456   3    -5.50000    -4.76314    -6.73610
   457   2     1.37500    -7.14471     6.73610
   458   1     6.87500    -2.38157    -6.73610
   459   1    -5.50000     1.58771     8.98146
   460   2    -4.12500    -3.96928    -8.98146
   461   2     1.37500    -5.55700     8.98146
   462   2     5.50000    -1.58771    -8.98146
   463   2     6.87500     8.73242     2.24537
   464   2    -4.12500    10.32014    -2.24537
   465   2     4.12500   -10.32014     2.24537
   466   3    11.00000    -1.58771    -2.24537
   467   2     5.50000     7.93857     4.49073
   468   2    -4.12500     8.73242    -4.49073
   469   2    -9.62500     0.79386     4.49073
   470   3     4.12500    -8.73242     4.49073
   471   3     9.62500    -0.79386    -4.49073
   472   3     4.12500     7.14471     6.73610
   473   2    -4.12500     7.14471    -6.73610
   474   3    -8.25000     0.00000     6.73610
   475   3    -4.12500    -7.14471    -6.73610
   476   2     4.12500    -7.14471     6.73610
   477   3     8.25000     0.00000    -6.73610
   478   2     2.75000     6.35085     8.98146
   479   3    -4.12500     5.55700    -8.98146
   480   1    -6.87500    -0.79386     8.98146
   481   3    -2.75000    -6.35085    -8.98146
   482   2     4.12500    -5.55700     8.98146
   483   2     6.87500     0.79386    -8.98146
   484   2    16.50000     0.00000    -0.00000
   485   1     8.25000    14.28942    -0.00000
   486   1    -8.25000    14.28942    -0.00000
   487   1   -16.50000     0.00000    -0.00000
   488   1    -8.25000   -14.28942    -0.00000
   489   1     8.25000   -14.28942    -0.00000
   490   1     8.25000    -4.76314    13.47219
   491   1    -8.25000    -4.76314    13.47219
   492   1     0.00000    -9.52628   -13.47219
   493   2    -8.25000     4.76314   -13.47219
   494   3    15.12500     2.38157    -0.00000
   495   2    15.12500    -0.79386     2.24537
   496   2    15.12500     0.79386    -2.24537
   497   2     5.50000    14.28942    -0.00000
   498   3     6.87500    13.49556     2.24537
   499   3     8.25000    12.70171    -2.24537
   500   1    -9.62500    11.90785    -0.00000
   501   2    -6.87500    13.49556     2.24537
   502   2   -15.12500    -2.38157    -0.00000
   503   3   -15.12500    -0.79386     2.24537
   504   2   -15.12500     0.79386    -2.24537
   505   1    -5.50000   -14.28942    -0.00000
   506   2    -8.25000   -12.70171     2.24537
   507   1    -6.87500   -13.49556    -2.24537
   508   1     9.62500   -11.90785    -0.00000
   509   2     6.87500   -13.49556    -2.24537
   510   2     6.87500    -2.38157    13.47219
   511   2     5.50000    -4.76314    13.47219
   512   1    -1.37500     7.14471    13.47219
   513   1     1.37500    -7.14471   -13.47219
   514   1    -1.37500    -7.14471   -13.47219
   515   1     5.50000     4.76314   -13.47219
   516   3    13.75000    -1.58771     4.49073
   517   1    13.75000     1.58771    -4.49073
   518   1     2.75000    14.28942    -0.00000
   519   1     5.50000    12.70171     4.49073
   520   1    -5.50000    12.70171     4.49073
   521   2    -8.25000    11.11399    -4.49073
   522   2   -13.75000    -4.76314    -0.00000
   523   2   -13.75000    -1.58771     4.49073
   524   3    -2.75000   -14.28942    -0.00000
   525   2    -8.25000   -11.11399     4.49073
   526   1    -5.50000   -12.70171    -4.49073
   527   3    11.00000    -9.52628    -0.00000
   528   2     8.25000   -11.11399     4.49073
   529   3     5.50000     0.00000    13.47219
   530   1     2.75000    -4.76314    13.47219
   531   3    -2.75000     4.76314    13.47219
   532   1     2.75000    -4.76314   -13.47219
   533   3    -2.75000    -4.76314   -13.47219
   534   2     2.75000     4.76314   -13.47219
   535   1    12.37500     7.14471    -0.00000
   536   1    12.37500    -2.38157     6.73610
   537   3     0.00000    14.28942    -0.00000
   538   3     4.12500    11.90785     6.73610
   539   2     8.25000     9.52628    -6.73610
   540   2   -12.37500     7.14471    -0.00000
   541   2    -4.12500    11.90785     6.73610
   542   3   -12.37500    -7.14471    -0.00000
   543   1   -12.37500    -2.38157     6.73610
   544   2   -12.37500     2.38157    -6.73610
   545   2     0.00000   -14.28942    -0.00000
   546   3    -8.25000    -9.52628     6.73610
   547   2    -4.12500   -11.90785    -6.73610
   548   2    12.37500    -7.14471    -0.00000
   549   2     8.25000    -9.52628     6.73610
   550   3     4.12500   -11.90785    -6.73610
   551   1     4.12500     2.38157    13.47219
   552   3     0.00000    -4.76314    13.47219
   553   1     4.12500    -2.38157   -13.47219
   554   2    -4.12500    -2.38157   -13.47219
   555   1    11.00000     9.52628    -0.00000
   556   3    11.00000    -3.17543     8.98146
   557   2    11.00000     3.17543    -8.98146
   558   3     2.75000    11.11399     8.98146
   559   2     8.25000     7.93857    -8.98146
   560   1   -13.75000     4.76314    -0.00000
   561   3    -2.75000    11.11399     8.98146
   562   2    -8.25000     7.93857    -8.98146
   563   2   -11.00000    -9.52628    -0.00000
   564   3   -11.00000    -3.17543     8.98146
   565   3   -11.00000     3.17543    -8.98146
   566   1     2.75000   -14.28942    -0.00000
   567   2    -2.75000   -11.11399    -8.98146
   568   2    13.75000    -4.76314    -0.00000
   569   3     2.75000   -11.11399    -8.98146
   570   2     2.75000     4.76314    13.47219
   571   1    -2.75000    -4.76314    13.47219
   572   2    -5.50000     0.00000    13.47219
   573   2     5.50000     0.00000   -13.47219
   574   2    -2.75000     4.76314   -13.47219
   575   2     9.62500    11.90785    -0.00000
   576   2    -5.50000    14.28942    -0.00000
   577   3     1.37500    10.32014    11.22683
   578   3     8.25000     6.35085   -11.22683
   579   2    -1.37500    10.32014    11.22683
   580   1    -9.62500   -11.90785    -0.00000
   581   2    -9.62500    -3.96928    11.22683
   582   3    -9.62500     3.96928   -11.22683
   583   3    -8.25000    -6.35085    11.22683
   584   3    -1.37500   -10.32014   -11.22683
   585   3     8.25000    -6.35085    11.22683
   586   2     1.37500   -10.32014   -11.22683
   587   2     1.37500     7.14471    13.47219
   588   2    -5.50000    -4.76314    13.47219
   589   2     6.87500     2.38157   -13.47219
   590   1    -6.87500     2.38157   -13.47219
   591   2    13.75000     3.17543    -2.24537
   592   1     4.12500    13.49556     2.24537
   593   2    -9.62500    10.32014    -2.24537
   594   2   -13.75000    -3.17543     2.24537
   595   2    -4.12500   -13.49556    -2.24537
   596   2     9.62500   -10.32014     2.24537
   597   3     0.00000    -4.76314   -13.47219
   598   2    12.37500     3.96928    -4.49073
   599   1     2.75000    12.70171     4.49073
   600   2    -9.62500     8.73242    -4.49073
   601   3    -2.75000   -12.70171    -4.49073
   602   2     1.37500    -2.38157    13.47219
   603   2    -1.37500    -2.38157   -13.47219
   604   2    11.00000     4.76314    -6.73610
   605   3     1.37500    11.90785     6.73610
   606   1    -9.62500     7.14471    -6.73610
   607   2   -11.00000    -4.76314     6.73610
   608   2    -1.37500   -11.90785    -6.73610
   609   2     9.62500    -7.14471     6.73610
   610   1    -1.37500    -2.38157    13.47219
   611   2    -2.75000     0.00000   -13.47219
   612   3     9.62500     5.55700    -8.98146
   613   2     0.00000    11.11399     8.98146
   614   2    -9.62500     5.55700    -8.98146
   615   3    -9.62500    -5.55700     8.98146
   616   1     0.00000   -11.11399    -8.98146
   617   1     9.62500    -5.55700     8.98146
   618   2    -4.12500    -2.38157    13.47219
   619   3    -4.12500     2.38157   -13.47219
   620   2    13.75000     1.58771     2.24537
   621   1     5.50000    12.70171    -2.24537
   622   1    -8.25000    11.11399     2.24537
   623   2   -13.75000    -1.58771    -2.24537
   624   3    -5.50000   -12.70171     2.24537
   625   1     8.25000   -11.11399    -2.24537
   626   1    12.37500     0.79386     4.49073
   627   1     5.50000    11.11399    -4.49073
   628   3    -6.87500    10.32014     4.49073
   629   2   -12.37500    -0.79386    -4.49073
   630   2    -5.50000   -11.11399     4.49073
   631   2     6.87500   -10.32014    -4.49073
   632   3    11.00000     0.00000     6.73610
   633   1     5.50000     9.52628    -6.73610
   634   1    -5.50000     9.52628     6.73610