5017
 Atoms. Timestep: 6000
2 0.089785 0.0846642 0.0706335
3 2.55419 -0.0430333 0.0162452
3 1.47803 2.36081 0.130812
3 -1.24572 2.32389 0.0511815
2 -2.6581 0.0591101 0.0402583
2 -1.35266 -2.31776 -0.0290228
3 1.2581 -2.23434 0.0858476
3 1.40251 -0.613815 2.18416
3 0.0812136 1.50596 2.25207
2 -1.41646 -0.693563 2.18916
1 -0.0175653 -1.58318 -2.0857
3 1.2534 0.81849 -2.24067
2 -1.39605 1.07447 -2.27802
2 5.23331 0.116584 0.115018
2 2.69246 4.71744 -0.0565617
2 -2.59855 4.64336 0.101785
2 -5.43712 0.0629179 0.121828
1 -2.74631 -4.73654 0.0253733
1 2.58449 -4.48975 -0.0121517
2 2.56829 -1.40143 4.44493
2 0.0914447 3.16148 4.4886
3 -2.6017 -1.44076 4.2436
2 -0.201205 -3.12403 -4.57931
2 2.63348 1.58475 -4.39646
2 -2.75863 1.72531 -4.39647
3 3.81159 2.44657 0.00982809
2 4.01023 -0.75375 2.33163
1 3.93162 0.866114 -2.2321
3 0.0412418 4.74972 0.0871188
1 1.42933 3.88383 2.27108
2 2.57085 3.17578 -2.13534
3 -4.05913 2.42368 0.00276674
2 -1.2355 3.91085 2.12372
2 -2.83805 3.209 -2.11648
1 -4.1512 -2.2959 0.0629703
3 -4.01231 -0.740774 2.27925
2 -4.03428 0.873327 -2.12931
1 -0.139655 -4.50416 -0.0405755
1 -2.64106 -3.05621 2.13287
2 -1.3899 -3.80309 -2.41768
3 3.9295 -2.19523 0.0137809
3 2.50186 -2.90076 2.38789
3 1.29392 -3.73286 -2.25135
3 1.33452 0.883717 4.38946
1 -0.0168331 -1.43706 4.35671
3 -1.39975 0.763793 4.37338
2 1.39143 -0.685141 -4.48425
1 -1.31556 -0.746123 -4.38749
2 -0.0221961 1.6323 -4.3744
2 2.68517 1.49606 2.23827
2 -0.049206 3.15244 -2.09088
2 -2.67661 1.64566 2.14957
1 -2.76497 -1.56498 -2.14582
3 0.120727 -2.95897 2.13212
1 2.65797 -1.5234 -2.09393
1 7.87165 0.00758959 -0.022585
1 4.02816 7.05802 -0.0548478
2 -4.11871 7.09626 -0.0374562
2 -8.15646 -0.038005 0.0552393
2 -3.999 -6.97771 -0.0763759
2 4.05137 -6.8985 0.109555
2 3.77891 -2.28695 6.63406
1 0.116658 4.64568 6.78276
2 -3.9602 -2.30923 6.67881
1 -0.123089 -4.69895 -6.64515
1 4.08121 2.28265 -6.75723
1 -4.10048 2.37465 -6.64767
1 6.6147 2.32425 -0.117591
3 6.59835 -0.769277 2.24666
2 6.59762 0.686997 -2.2997
3 1.38726 7.08663 0.0265895
3 2.73015 6.10656 2.18671
2 3.90957 5.51157 -2.28461
2 -5.43161 4.67288 -0.205893
2 -2.38772 6.18773 2.26551
1 -4.14726 5.56201 -2.22698
3 -6.83227 -2.42473 0.0724109
1 -6.78251 -0.83312 2.25225
2 -6.82284 0.814978 -2.31371
2 -1.35198 -6.92739 -0.0319315
1 -4.09353 -5.43344 2.14975
2 -2.66898 -6.1724 -2.23176
3 5.32357 -4.64353 0.0777653
2 3.85194 -5.27843 2.23425
2 2.62912 -6.14801 -2.11548
3 2.66182 0.0277124 6.77192
3 1.20851 -2.33054 6.54284
2 -1.27144 2.18634 6.68595
2 1.24782 -2.30132 -6.70589
1 -1.46556 -2.42923 -6.63618
2 1.3961 2.35437 -6.65632
2 5.34541 4.61873 0.0882441
3 5.24219 -1.67119 4.58505
1 5.25279 1.65016 -4.58683
3 -1.31685 6.92441 0.0758033
2 1.45278 5.42956 4.37674
2 3.96867 4.02287 -4.55524
1 -6.75887 2.29915 -0.102001
3 -1.25497 5.33152 4.47761
3 -4.09202 3.93674 -4.31631
1 -5.62625 -4.74545 -0.0233648
2 -5.28855 -1.51171 4.42622
3 -5.45858 1.62044 -4.36942
2 1.16755 -6.84489 0.256228
2 -3.97758 -3.9832 4.6327
3 -1.38164 -5.37479 -4.41332
2 6.52918 -2.29693 0.0767868
3 3.88531 -3.80973 4.31154
1 1.26209 -5.43578 -4.38729
1 1.2966 2.31007 6.60519
1 -1.40627 -2.26603 6.55572
3 -2.64695 -0.0547035 6.52731
3 2.71542 0.0506134 -6.68014
1 -2.68371 0.0776999 -6.65973
3 -1.29669 2.35968 -6.5032
2 5.22633 3.27706 -2.27391
1 0.0863849 6.2191 2.25507
1 -5.44609 3.11308 -2.36873
2 -5.30052 -3.05041 2.12307
2 -0.1192 -6.22077 -2.23025
1 5.241 -2.94493 2.13682
2 0.107421 -0.0546405 6.58579
2 0.0360165 0.0240264 -6.61637
2 5.44018 1.49999 2.45248
1 1.31077 5.53132 -2.10236
1 -3.91754 3.93842 2.25215
2 -5.5811 -1.55374 -2.18951
3 -1.4564 -5.42906 2.07203
2 3.97838 -3.84109 -2.1725
3 3.85617 0.797337 4.54706
2 1.22635 4.01334 -4.44551
2 -2.71684 3.15303 4.45798
2 -4.13023 -0.61603 -4.48515
1 -1.30509 -3.89623 4.37937
1 2.7156 -2.94491 -4.39186
2 4.06748 3.77581 2.31414
3 -1.32108 5.36341 -2.08924
1 -5.3244 1.53326 2.23321
2 -4.22338 -3.92295 -2.36299
2 1.16001 -5.20575 2.23405
3 5.31632 -1.6106 -2.12655
3 2.75359 3.09124 4.51101
3 -1.33486 3.84259 -4.52352
1 -3.96637 0.729846 4.51212
3 -2.7919 -3.01055 -4.46766
2 1.26885 -3.92892 4.52119
2 4.08644 -0.745265 -4.38701
2 10.991 -0.106371 -0.0517763
3 5.47843 9.32568 0.122314
3 -5.39752 9.34157 0.0388366
2 -10.9975 -0.0532363 -0.0361052
1 -5.4906 -9.26895 -0.0327543
1 5.48096 -9.30793 0.213127
1 5.31495 -3.13912 9.0027
3 0.209879 6.1535 8.93528
1 -5.32465 -3.15658 8.91808
1 0.162599 -6.29408 -8.91175
2 5.42567 3.02033 -8.82916
3 -5.45604 3.16611 -8.75811
2 9.59002 2.36494 -0.0644331
3 9.52682 -0.520631 2.10437
1 9.25525 0.966817 -2.22098
2 2.73022 9.413 -0.00322923
1 4.02805 8.50517 2.17322
3 5.44955 7.8819 -2.11536
3 -6.88251 7.04712 0.0835061
2 -3.80055 8.56828 2.17365
1 -5.45381 7.90051 -2.15892
2 -9.50575 -2.30621 -0.0873576
2 -9.46661 -0.783834 2.17898
1 -9.66586 0.693405 -2.26797
3 -2.81226 -9.19293 -0.141017
1 -5.5934 -7.75275 2.30981
3 -4.13548 -8.66787 -2.21252
2 6.80365 -7.02432 0.133011
3 5.20018 -7.73354 2.19339
2 4.03404 -8.43992 -2.03026
2 4.10098 -0.805364 9.07354
2 2.81103 -3.11814 9.0572
1 -1.2326 3.8223 8.8885
2 1.37893 -4.04346 -8.76659
3 -1.29153 -3.9835 -8.83962
1 2.79072 3.129 -8.91078
1 8.1409 4.61743 0.00978713
2 7.90744 -1.49443 4.45894
2 7.93466 1.67204 -4.47068
1 -0.0894944 9.34509 -0.0474101
3 2.77811 7.63586 4.40978
1 5.46394 6.32789 -4.38002
2 -8.15373 4.78574 0.0642031
2 -2.44678 7.5573 4.45607
3 -5.37589 6.36172 -4.29397
2 -8.11533 -4.75768 -0.066252
2 -8.02528 -1.59381 4.59193
2 -8.22646 1.54122 -4.53119
2 -0.168054 -9.20888 -0.100319
3 -5.50131 -6.16343 4.5689
3 -2.73521 -7.79408 -4.33378
2 7.99126 -4.58617 0.0333788
2 5.20521 -6.11244 4.53309
3 2.71136 -7.6606 -4.31079
2 2.78216 1.4567 8.89515
1 -0.0715448 -3.16196 8.83599
3 -2.70414 1.51192 8.85643
2 2.71082 -1.50757 -8.8955
1 -2.68842 -1.64467 -8.87461
3 -0.0127665 3.10311 -8.74533
2 6.7537 7.07814 0.0539561
2 6.75631 -2.39115 6.80259
3 6.83038 2.32864 -6.77919
3 -2.71023 9.35909 0.00536267
2 1.36286 6.87812 6.64082
2 5.43463 4.56038 -6.63843
1 -9.61307 2.27492 0.147151
1 -1.20846 6.98283 6.65407
3 -5.31874 4.84562 -6.58558
2 -7.00022 -6.93084 -0.0742577
2 -6.61456 -2.37911 6.50884
1 -6.87704 2.45269 -6.55605
2 2.65516 -9.22864 0.196936
2 -5.30091 -4.6907 6.7913
2 -1.30306 -6.96503 -6.46227
1 9.41632 -2.19064 0.0213859
1 5.19538 -4.63802 6.75884
3 1.37932 -7.07497 -6.67215
2 1.47304 3.67814 8.95844
1 -2.68288 -3.07974 8.80158
3 -4.04565 -0.749815 8.86875
3 3.88161 0.761717 -8.82534
1 -4.03564 0.709858 -8.77908
2 -2.57094 3.04904 -8.78707
2 8.00215 3.31706 -2.14881
1 1.43067 8.53303 2.15774
1 -6.83478 5.56399 -2.25612
2 -8.16783 -3.16387 2.31595
3 -1.35938 -8.55409 -2.3014
2 6.53573 -5.41364 2.241
1 1.58683 -0.840956 8.86852
1 -0.0134355 -1.6033 -8.85848
1 6.70717 3.97662 -4.61185
3 0.224549 7.65743 4.50049
2 -6.68591 3.9799 -4.4042
1 -6.89567 -3.89967 4.49221
3 -0.0923619 -7.7341 -4.38211
2 6.57686 -3.87776 4.4145
1 -1.33652 -0.73688 8.84789
2 -1.30018 0.845782 -8.86151
2 8.1349 1.55696 2.28782
2 2.79367 7.86006 -2.29953
2 -5.39559 6.23028 2.17765
2 -8.12392 -1.61434 -2.31505
2 -2.74282 -7.75638 2.26398
2 5.36967 -6.19781 -2.04929
1 6.61863 0.821431 4.49957
2 2.77495 6.33891 -4.52563
2 -4.14781 5.52656 4.3839
1 -6.82633 -0.811916 -4.35054
2 -2.61324 -6.16881 4.38052
3 4.0497 -5.39562 -4.24863
2 5.30795 0.02737 6.7831
3 2.6548 4.66028 -6.70347
1 -2.74415 4.62677 6.67839
2 -5.5844 -0.0921691 -6.60013
3 -2.67139 -4.83163 6.61419
1 2.65053 -4.78354 -6.56611
2 6.65263 5.55868 -2.19785
1 -1.25567 8.59157 2.28433
2 -8.13087 3.06436 -2.23363
2 -6.66694 -5.27072 2.31887
2 1.35502 -8.53534 -2.18535
2 8.16061 -2.83616 2.26843
3 0.117336 1.27428 8.78177
2 1.26449 0.681607 -8.93872
1 6.71468 3.73774 2.26039
3 0.0376549 7.74414 -2.16389
2 -6.71783 3.75455 2.13532
3 -6.91594 -4.00067 -2.22185
3 -0.0208283 -7.73614 2.34532
2 6.667 -3.9125 -2.22144
2 5.43059 3.08837 4.59083
1 -0.0662119 6.31576 -4.32251
2 -5.34086 2.99249 4.5183
1 -5.5303 -3.14373 -4.46528
3 0.08239 -6.22252 4.2809
2 5.27268 -3.24792 -4.36237
1 3.99047 2.20331 6.69465
2 -0.0429033 4.75501 -6.57417
2 -3.98314 2.17109 6.69528
1 -4.18429 -2.32599 -6.66959
1 -0.0131826 -4.80753 6.60407
1 3.99094 -2.33388 -6.71809
1 5.43023 6.09679 2.18065
2 -2.55968 7.83393 -2.18358
1 -8.09263 1.54744 2.29122
2 -5.50488 -6.29141 -2.1938
2 2.62904 -7.67441 2.37109
2 7.91671 -1.49259 -2.18051
1 4.10802 5.39526 4.45281
1 -2.72179 6.20086 -4.44948
3 -6.76336 0.704541 4.53391
1 -4.12376 -5.43899 -4.42845
1 2.59599 -6.21232 4.51853
1 6.82078 -0.739772 -4.41175
3 2.72366 4.58485 6.61487
2 -2.64067 4.63078 -6.58786
3 -5.34995 -0.0608019 6.67599
2 -2.74125 -4.65367 -6.66052
1 2.61061 -4.63931 6.78591
2 5.41763 -0.118645 -6.59924
3 13.6157 0.055006 -0.0086494
2 6.84649 11.748 0.0360914
3 -6.78538 11.7521 0.116475
2 -13.6195 -0.137124 0.0894047
1 -6.90121 -11.6566 0.145403
3 6.77713 -11.715 -0.0110174
3 6.79087 -3.91879 11.0735
3 0.0784266 7.76109 11.1286
2 -6.78869 -3.94624 10.9856
3 0.00627484 -7.87253 -10.9652
2 6.68215 3.96287 -11.1139
2 -6.7539 3.84402 -10.941
1 12.2911 2.4959 -0.0900126
2 12.2971 -0.593222 2.32327
1 12.1402 0.935824 -2.27542
3 4.01673 11.6553 0.0750752
1 5.31142 10.9191 2.17012
1 6.82791 10.102 -2.10034
2 -8.09554 9.18275 0.202911
2 -5.41473 10.9601 2.19977
2 -6.73589 10.036 -2.01565
1 -12.1615 -2.36582 -0.125793
3 -12.2008 -0.764369 2.1853
3 -12.2304 0.726091 -2.17645
3 -4.17113 -11.7035 0.200678
2 -6.92889 -10.0708 2.44735
3 -5.53619 -10.8452 -2.16587
1 8.11281 -9.27184 0.0818666
3 6.86944 -10.3692 2.374
2 5.39954 -10.8272 -2.08967
3 5.41004 -1.4838 11.1739
3 4.11544 -3.88721 11.1749
2 -1.34251 5.49106 11.0319
3 1.28702 -5.4878 -11.0626
2 -1.31254 -5.47639 -11.2186
3 3.91631 3.93437 -11.064
3 10.8616 4.65038 -0.0298096
1 10.6971 -1.29996 4.36445
2 10.8675 1.56896 -4.4228
3 1.36962 11.6391 -0.0389873
1 3.99887 10.089 4.47315
3 6.87835 8.64769 -4.44908
3 -9.51448 7.08949 0.0356123
1 -3.84798 9.99041 4.49897
2 -6.78349 8.56375 -4.37516
1 -10.9247 -4.62548 -0.060544
2 -10.73 -1.63404 4.46498
3 -11.051 1.46702 -4.35212
1 -1.36953 -11.61 0.0263712
2 -6.84805 -8.52188 4.51036
2 -4.07242 -10.0965 -4.50013
1 9.32534 -6.92185 0.125147
1 6.52242 -8.4528 4.49899
2 4.04113 -10.0102 -4.50982
2 4.06859 0.899585 11.1767
1 1.41748 -3.83594 11.0597
2 -2.68878 3.03051 11.1309
2 2.50575 -3.02341 -11.0449
2 -2.71817 -3.25059 -11.0602
2 1.1801 3.92045 -10.9969
2 9.48242 6.96702 0.00296591
2 9.39915 -2.33227 6.76727
2 9.47547 2.4801 -6.76159
1 -1.32616 11.7439 0.104909
2 2.76606 9.20044 6.63522
2 6.7572 7.00158 -6.5282
1 -10.801 4.68297 -0.0633954
1 -2.6173 9.21832 6.81108
2 -6.75884 6.98294 -6.56559
3 -9.58831 -7.08745 -0.0535642
1 -9.3032 -2.48017 6.67576
2 -9.77175 2.39787 -6.62462
1 1.34444 -11.6518 0.0498333
3 -6.68586 -7.04711 6.78938
1 -2.79238 -9.33208 -6.62047
1 10.694 -4.64269 0.0670253
3 6.57731 -6.86811 6.64457
3 2.67718 -9.29662 -6.62261
3 2.79059 3.2086 11.1973
2 -1.22595 -3.8461 10.9899
2 -3.9243 0.620379 11.106
3 3.95109 -0.6873 -10.9107
1 -3.95525 -0.689717 -11.0415
3 -1.5687 3.9399 -11.0505
2 8.15229 9.27695 -0.0742305
3 8.04947 -2.98963 8.91866
2 8.05423 3.17068 -8.88472
2 -4.13627 11.5616 0.0205062
2 1.43644 8.50019 8.82924
2 6.75142 5.33405 -8.78139
2 -12.2112 2.36136 0.0604715
2 -1.09672 8.49815 8.97344
2 -6.75508 5.44621 -8.74207
2 -8.14299 -9.27162 -0.0428275
1 -8.04713 -3.15855 8.87604
3 -8.20505 3.05054 -8.75766
2 4.09657 -11.5596 0.00586221
2 -6.92501 -5.47296 8.83979
1 -1.34589 -8.6126 -8.75596
1 12.0983 -2.4388 0.1396
3 6.63042 -5.54869 9.00613
3 1.27488 -8.74616 -8.68218
2 1.4759 5.47915 11.1408
2 -3.99988 -3.93519 11.0306
3 -5.42058 -1.53804 11.148
3 5.25128 1.61542 -10.8682
3 -5.35261 1.60978 -10.9693
3 -4.02453 3.71725 -10.9098
3 10.9535 3.15537 -2.27584
3 2.68463 10.878 2.35162
3 -8.15326 7.89576 -2.24964
2 -10.8843 -3.14127 2.06446
2 -2.8406 -10.8697 -2.29191
2 7.97174 -7.79803 2.28561
3 2.73311 -1.50834 11.0227
1 -0.141599 -3.1425 -11.0458
2 9.50903 3.93777 -4.48495
2 1.40699 9.97361 4.39834
2 -8.11338 6.32318 -4.31103
3 -9.53264 -3.83692 4.39395
3 -1.4759 -10.0468 -4.38317
2 7.89487 -6.16611 4.45681
3 0.177242 -1.5306 10.9706
2 -1.25017 -0.909857 -11.223
3 8.13617 4.7834 -6.56096
3 0.101411 9.20082 6.63031
1 -8.21207 4.73425 -6.63679
3 -7.98004 -4.67554 6.58724
3 -0.0987564 -9.27503 -6.55161
1 7.90845 -4.73403 6.69903
1 -2.69103 -1.56738 11.0855
2 -2.58278 1.47312 -11.0966
2 10.8869 1.68593 2.13614
2 4.19143 10.1602 -2.13558
1 -6.68841 8.55773 2.24491
2 -10.8147 -1.51371 -2.26727
1 -4.09985 -9.98111 2.33224
3 6.77218 -8.57018 -2.1494
2 9.48437 0.866572 4.38945
3 4.06626 8.52233 -4.43011
2 -5.44616 7.85237 4.41531
3 -9.63404 -0.891788 -4.49084
2 -4.11038 -8.44602 4.64444
2 5.3716 -7.68851 -4.30156
1 8.004 0.0140289 6.64773
3 4.21945 7.06287 -6.59439
3 -4.05571 6.9502 6.65926
2 -8.29609 -0.183738 -6.54138
1 -4.01594 -6.98661 6.6697
3 3.99704 -7.06827 -6.46912
3 6.67191 -0.776653 9.05683
1 4.08787 5.44939 -8.71083
1 -2.53566 6.25564 8.85384
1 -6.75133 0.767895 -8.68959
2 -3.94667 -5.5534 8.90154
3 2.67806 -6.26202 -8.71186
1 9.64625 5.37375 -2.10279
3 0.0207474 10.851 2.15801
2 -9.47239 5.55609 -2.20612
1 -9.61235 -5.49165 2.29685
2 0.00685447 -10.8108 -2.3175
2 9.32626 -5.30594 2.38526
3 1.37341 0.82144 11.0671
3 1.23544 -0.7851 -11.098
1 8.34196 6.26597 -4.26081
2 -1.20779 9.98363 4.43153
2 -9.45436 3.93074 -4.4745
3 -8.14598 -6.17796 4.34074
2 1.27479 -9.9716 -4.41595
2 9.46397 -3.77081 4.50196
2 -1.25168 0.745441 10.9468
3 -0.0283571 1.56381 -11.053
3 9.43595 3.81971 2.23745
1 1.46435 10.1541 -2.17833
1 -8.20091 6.18142 2.19817
2 -9.5063 -3.93893 -2.16394
2 -1.34661 -10.1303 2.24958
2 8.0215 -6.3172 -2.1147
3 8.18181 3.15065 4.40171
2 1.37204 8.5249 -4.30301
1 -6.74144 5.35259 4.38479
2 -8.23485 -3.05919 -4.50016
3 -1.34858 -8.55253 4.36524
1 6.76762 -5.46315 -4.23082
3 6.73557 2.27809 6.76555
2 1.47722 6.98276 -6.74214
1 -5.45675 4.42446 6.616
3 -6.90011 -2.38137 -6.60939
2 -1.31491 -7.16479 6.52192
2 5.31077 -4.76322 -6.52196
3 5.42658 1.55715 8.88458
3 1.31591 5.40687 -8.8965
1 -3.9586 3.68561 8.78467
3 -5.46792 -1.63164 -8.8939
2 -1.36525 -5.68069 8.90422
1 4.02385 -3.93615 -8.80443
2 8.0845 7.75168 -2.19493
1 -2.5718 10.8335 2.26465
2 -10.8184 2.98288 -2.22345
1 -8.30802 -7.74239 2.22142
2 2.69343 -10.8291 -2.2308
1 10.7861 -3.0177 2.28571
2 -0.0964725 3.11363 11.0344
1 2.61647 1.61704 -10.9398
1 8.15463 6.18284 2.15568
3 -1.34752 10.2007 -2.10717
2 -9.42703 3.92564 2.25969
2 -8.32473 -6.3624 -2.16502
2 1.36226 -10.0716 2.37729
1 9.26874 -3.77043 -2.12511
2 6.82687 5.48118 4.51016
2 -1.35 8.52642 -4.33347
2 -8.08606 2.96529 4.52721
3 -6.78216 -5.54275 -4.4509
3 1.28003 -8.40199 4.49483
2 8.16559 -2.98215 -4.46196
1 5.41801 4.63114 6.70495
2 -1.41245 7.11687 -6.55807
1 -6.81243 2.07133 6.76564
1 -5.45352 -4.70753 -6.6229
3 1.20359 -6.95741 6.66065
1 6.7537 -2.34929 -6.73875
2 4.07575 3.85642 8.89056
2 -1.48147 5.36412 -8.92085
3 -5.26054 1.4387 8.92879
3 -3.95443 -3.95443 -8.88899
2 1.24893 -5.54966 8.77119
1 5.37622 -1.52041 -8.83078
2 6.65003 8.62657 2.27841
2 -3.91696 10.0521 -2.09358
2 -10.7684 1.51369 2.37313
2 -6.8528 -8.60742 -2.24847
3 3.95319 -10.0668 2.33565
1 10.7722 -1.46014 -2.1946
1 5.47187 7.87749 4.49392
2 -4.04753 8.66376 -4.38263
3 -9.39555 0.606778 4.5535
3 -5.39259 -7.93828 -4.4716
2 3.92468 -8.47126 4.58502
3 9.36572 -0.671968 -4.33677
1 4.05634 6.94449 6.73179
1 -4.10281 7.19312 -6.6138
3 -7.99837 -0.1333 6.64551
2 -3.94224 -7.00908 -6.51558
1 4.05858 -7.05413 6.74035
2 8.12633 0.0386583 -6.55279
2 2.76795 6.04796 8.86745
1 -4.06763 5.50042 -8.78231
1 -6.66986 -0.891437 8.80359
2 -2.59868 -6.30663 -8.87996
3 3.95869 -5.48056 8.91523
3 6.70003 0.723863 -8.78975
2 16.2285 -0.133487 -0.0327805
1 8.24845 13.9153 0.0173482
2 -8.19745 13.9743 -0.0113586
3 -16.2365 0.113721 -0.0329061
2 -8.21605 -13.8949 -0.0795818
3 8.02056 -14.0677 -0.0345319
2 8.14159 -4.57825 13.317
2 -0.0756305 9.30426 13.3921
1 -8.18163 -4.62691 13.2921
2 -0.00580235 -9.44939 -13.0715
2 8.05043 4.72439 -13.212
3 -8.2434 4.72085 -13.1165
1 14.9561 2.3133 -0.0404082
2 14.9547 -0.9381 2.01882
1 14.8737 0.756633 -2.22082
1 5.45618 14.0567 0.173162
2 6.59215 13.1423 2.24679
2 8.31192 12.5967 -2.23666
2 -9.42966 11.4781 0.142647
2 -6.94725 13.3167 2.26324
2 -8.17701 12.527 -2.17839
3 -14.8837 -2.34891 -0.0443224
1 -14.7595 -0.899217 2.28355
3 -14.9525 0.865955 -2.18314
1 -5.44861 -13.9288 0.116198
3 -8.18546 -12.3683 2.29665
1 -6.83056 -13.241 -2.26136
3 9.45677 -11.7557 0.0659356
3 7.94317 -12.4718 2.12376
3 6.70127 -13.1529 -2.20221
3 6.76226 -2.35121 13.2706
1 5.43973 -4.69444 13.347
2 -1.40821 7.03737 13.1879
1 1.20397 -7.0595 -13.2996
2 -1.28929 -7.04572 -13.4771
1 5.22678 4.64804 -13.2761
3 13.6428 4.65485 -0.0291059
2 13.3629 -1.69031 4.34156
3 13.4743 1.55457 -4.40143
3 2.88985 14.1349 -0.074081
2 5.41299 12.5052 4.56173
1 8.22387 10.9856 -4.4234
3 -10.7993 9.36111 0.0805137
2 -5.37074 12.4184 4.51072
1 -7.99087 10.8368 -4.40945
2 -13.5596 -4.80644 0.164295
3 -13.4485 -1.58665 4.46242
2 -13.6805 1.42564 -4.3755
1 -2.75507 -13.9428 0.162313
2 -8.21852 -10.9882 4.55998
2 -5.30601 -12.2822 -4.42359
3 10.7359 -9.1936 0.00286128
2 8.14802 -10.9161 4.47128
2 5.34715 -12.3874 -4.29287
3 5.27947 0.0278366 13.1966
1 2.8292 -4.85082 13.4003
3 -2.51489 4.56512 13.1608
2 2.55711 -4.64407 -13.2958
1 -2.80914 -4.7308 -13.3907
2 2.48831 4.65298 -13.2168
2 12.1831 6.87074 -0.0595953
1 12.1035 -2.2989 6.69618
1 12.241 2.23308 -6.58004
1 0.244039 14.0788 0.149877
2 4.13368 11.5079 6.68982
1 8.16227 9.40728 -6.53323
1 -12.1761 7.07569 -0.0896443
2 -4.00245 11.5165 6.69762
2 -8.26474 9.3822 -6.67612
3 -12.3582 -7.12358 0.0935451
2 -12.0756 -2.34257 6.64323
3 -12.2867 2.36168 -6.6594
2 0.0964721 -14.0769 -0.00129425
3 -8.44028 -9.30397 6.6189
1 -4.18941 -11.6872 -6.65379
1 12.0066 -6.95839 0.10393
1 8.10562 -9.14926 6.63006
2 4.05442 -11.6544 -6.54325
2 4.18037 2.38685 13.3529
2 0.120126 -4.74716 13.1872
1 -4.03672 2.22374 13.2789
2 3.90706 -2.24831 -13.2793
3 -3.93114 -2.24284 -13.1629
3 -0.133066 4.51454 -13.3615
3 10.8537 9.13267 -0.121772
1 10.6749 -3.16223 8.97804
3 10.8635 3.15765 -8.67676
2 -2.6907 14.0722 0.0865966
2 2.79284 10.8384 8.87319
2 8.27826 7.78573 -8.93583
2 -13.6037 4.61312 0.0645986
2 -2.75899 10.8079 8.8752
2 -8.18927 7.72956 -8.94351
1 -10.964 -9.34158 -0.0232786
2 -10.7609 -3.1827 9.01535
2 -10.8036 3.22402 -8.79684
3 2.71255 -13.985 0.000319055
1 -8.33069 -7.83363 8.83987
2 -2.53898 -10.9114 -8.69337
3 13.4923 -4.76474 -0.0993839
3 8.09511 -7.70118 9.03651
2 2.70713 -10.88 -8.70381
2 2.70782 4.77713 13.3928
2 -2.67258 -4.55571 13.2179
3 -5.35659 0.000376462 13.2502
2 5.36596 -0.0883682 -13.0834
2 -5.29359 0.0596806 -13.1314
2 -2.78261 4.58002 -13.1747
3 9.5579 11.5951 0.038984
3 9.4484 -3.84217 11.2273
1 9.54871 3.96411 -10.8298
2 -5.42982 14.0217 0.229951
2 1.341 10.1229 11.0706
3 8.15302 6.22106 -10.9107
1 -14.9601 2.30634 -0.0498308
3 -1.3877 10.0642 11.2096
1 -8.19285 6.28019 -11.0342
1 -9.5783 -11.5525 0.106695
3 -9.42453 -3.88824 11.0211
3 -9.54633 3.91493 -11.0127
2 5.41435 -13.9814 0.115117
1 -8.0972 -6.25872 11.0204
3 -1.3672 -10.2501 -10.9952
2 14.759 -2.38198 -0.0125348
1 8.12088 -6.12209 11.0951
1 1.34283 -10.1395 -10.8748
3 1.34074 7.0227 13.292
2 -5.48367 -4.71435 13.294
2 -6.74747 -2.11935 13.4059
2 6.70727 2.20321 -13.0185
2 -6.80546 2.49287 -13.1078
3 -5.49068 4.65824 -13.3587
3 13.5236 3.14371 -2.25494
2 3.97019 13.3327 2.08679
2 -9.46749 10.0996 -2.25495
3 -13.4483 -3.14511 2.36884
3 -4.10984 -13.1001 -2.08642
2 9.4888 -9.98449 2.22711
1 4.10926 -2.32328 13.301
3 -0.0584564 -4.7543 -13.2996
2 12.1767 3.93274 -4.36163
2 2.61765 12.3946 4.52278
1 -9.49955 8.69735 -4.53649
3 -12.1324 -3.9524 4.58295
3 -2.82057 -12.3318 -4.35896
2 9.47809 -8.29751 4.356
2 1.49545 -2.1873 13.3443
3 -1.39913 -2.48965 -13.3363
3 10.9806 4.59642 -6.49932
3 1.54561 11.5296 6.57425
2 -9.53657 6.97532 -6.60996
3 -10.6867 -4.69043 6.69665
1 -1.31789 -11.6751 -6.4568
2 9.35478 -6.86655 6.58447
1 -1.2017 -2.33232 13.2328
3 -2.71176 0.0137728 -13.2973
2 9.54299 5.42277 -8.70484
3 -0.0265409 10.7358 8.89615
1 -9.54451 5.4684 -8.99402
3 -9.5399 -5.53183 8.78141
2 0.0884868 -10.9138 -8.81929
1 9.38466 -5.37016 8.95162
3 -4.12709 -2.50496 13.2671
2 -4.06818 2.40473 -13.2859
2 13.6699 1.6304 2.14621
3 5.51174 12.3287 -2.18541
2 -8.12533 10.9389 2.27229
1 -13.6448 -1.5443 -2.22111
1 -5.58939 -12.4645 2.44089
3 8.098 -10.8888 -2.11982
3 12.0905 0.876665 4.62976
1 5.55513 10.8684 -4.37371
1 -6.70738 10.2022 4.37119
2 -12.1479 -0.977403 -4.52585
2 -5.4023 -10.8056 4.48308
3 6.59518 -10.1052 -4.49864
3 10.8813 -0.0644438 6.59489
3 5.47459 9.37215 -6.56603
3 -5.35751 9.25481 6.60854
1 -10.9492 -0.080722 -6.66177
3 -5.42946 -9.37703 6.58649
2 5.38904 -9.19451 -6.60488
3 9.52806 -0.778816 8.86277
2 5.37011 7.78643 -8.90239
2 -3.87668 8.51766 8.84686
2 -9.44733 0.897022 -8.71357
2 -5.27669 -7.82248 8.91407
2 3.9701 -8.49279 -8.68932
1 8.16096 -1.5254 11.1017
1 5.299 6.18655 -10.9325
3 -2.61822 7.84064 11.1255
2 -8.15948 1.56008 -10.851
3 -5.4432 -6.31667 11.0469
2 2.62793 -7.74203 -10.7927
3 12.2806 5.37035 -2.07716
3 1.40386 13.2546 2.2262
1 -10.7678 7.7996 -2.15908
2 -12.1432 -5.53022 2.30368
2 -1.47478 -13.1932 -2.1942
2 10.82 -7.60084 2.23082
1 2.70893 0.233442 13.2962
3 1.2879 -2.19699 -13.2199
3 10.9737 6.14169 -4.32727
1 0.0371087 12.2968 4.40925
2 -10.9456 6.19241 -4.39889
3 -10.71 -6.18236 4.58034
3 0.00509447 -12.4131 -4.31885
3 10.6674 -6.10344 4.44995
2 0.234636 -0.101242 13.2304
2 0.0244077 -0.00137765 -13.3735
2 9.7445 6.95789 -6.49012
3 -1.30412 11.5446 6.75624
3 -10.8735 4.83906 -6.53649
2 -9.54428 -6.93337 6.63751
1 1.41744 -11.5845 -6.59321
1 10.5444 -4.67303 6.71596
3 -2.65951 -0.086375 13.31
1 -1.45359 2.2986 -13.2061
3 12.3839 3.86566 2.25324
2 2.8047 12.4846 -2.14612
3 -9.57733 8.69572 2.36346
1 -12.1488 -3.88994 -2.33234
1 -2.72 -12.4264 2.33439
3 9.31836 -8.48685 -2.16965
2 10.9794 3.25752 4.37449
1 2.83487 10.687 -4.36838
3 -8.1012 7.79489 4.49067
3 -10.8609 -3.14364 -4.43336
2 -2.60698 -10.8574 4.44251
2 7.9967 -7.72844 -4.40661
1 9.47011 2.25906 6.58336
2 2.87063 9.21048 -6.61612
2 -6.64519 6.90649 6.69449
3 -9.69201 -2.4082 -6.58505
3 -2.56759 -9.37341 6.64883
1 6.80268 -6.99966 -6.59294
1 8.17438 1.49944 8.88916
2 2.65867 7.75785 -9.00822
2 -5.32725 6.14111 8.82817
2 -8.13233 -1.6087 -8.6925
2 -2.57924 -7.93094 8.71706
2 5.44152 -6.29956 -8.73892
1 6.82042 0.82059 11.1303
2 2.56679 6.28308 -11.0232
2 -3.98458 5.33169 11.0946
1 -6.64461 -0.64775 -11.026
2 -2.50619 -6.34111 11.1216
1 3.91314 -5.47219 -10.9594
2 10.9407 7.69688 -2.22448
3 -1.20726 13.2231 2.24307
3 -12.1808 5.4092 -2.18926
2 -10.8888 -7.6395 2.24846
2 1.21589 -13.1538 -2.06714
3 12.0605 -5.37121 2.20653
2 1.3089 2.41462 13.2968
3 2.69271 0.0505677 -13.174
2 9.49508 8.6026 -4.53237
2 -2.48659 12.3886 4.45435
1 -12.2545 3.86738 -4.52001
2 -9.4698 -8.43399 4.35239
2 2.67147 -12.4701 -4.27788
1 12.0767 -3.79835 4.50244
2 -1.47565 2.21456 13.2813
1 1.17269 2.39193 -13.3019
3 10.899 6.05591 2.17173
2 0.0495754 12.5861 -2.04587
2 -10.7198 6.1197 2.12464
2 -11.0426 -6.3481 -2.13983
2 -0.0047643 -12.4219 2.14352
1 10.7169 -6.22939 -2.12388
3 9.4144 5.44428 4.54263
2 0.106831 10.8557 -4.27709
2 -9.38484 5.47546 4.44433
2 -9.58135 -5.41548 -4.37675
2 0.0833674 -10.8361 4.44602
1 9.51768 -5.37287 -4.27046
2 8.14038 4.55144 6.6147
2 0.0896215 9.38182 -6.54602
2 -8.03098 4.39718 6.69351
2 -8.02223 -4.77244 -6.7728
2 0.0477541 -9.42904 6.69625
2 8.02492 -4.81673 -6.52621
3 6.80481 3.93304 8.95718
2 -0.100779 7.75164 -8.78391
3 -6.74561 3.87785 8.85869
1 -6.71979 -3.97032 -8.91115
2 0.00403741 -7.85926 8.87614
3 6.64471 -3.81838 -8.88109
2 5.5881 3.10321 10.9865
2 -0.15462 6.10028 -11.1477
1 -5.39631 3.09796 11.0234
1 -5.33687 -3.07047 -11.0335
3 0.114857 -6.27531 11.1183
2 5.34074 -2.88131 -10.9794
2 9.57821 10.1611 -2.24953
1 -3.94959 13.0862 2.1782
2 -13.5754 3.00569 -2.18676
2 -9.561 -10.1409 2.17552
2 3.98944 -13.2174 -2.14403
2 13.5058 -3.18137 2.14876
2 -0.00261666 4.89402 13.4
2 3.91005 2.3537 -13.1525
2 9.47027 8.50305 2.14128
2 -2.688 12.4859 -1.97278
3 -12.113 3.94153 2.22739
1 -9.51618 -8.74319 -2.2648
2 2.78345 -12.3305 2.17977
3 11.9376 -3.73795 -2.29571
3 8.11053 7.69899 4.50264
2 -2.626 11.0183 -4.34009
3 -10.7359 3.14949 4.52767
1 -8.21724 -7.8403 -4.47701
1 2.73053 -10.8431 4.42042
2 10.8178 -2.9487 -4.45714
2 6.7806 6.971 6.56579
3 -2.75936 9.40722 -6.60959
3 -9.51204 2.25687 6.90815
2 -6.8843 -7.20198 -6.49723
1 2.61291 -9.3404 6.71377
1 9.40395 -2.35079 -6.67432
3 5.44751 6.27694 8.94624
1 -2.61253 7.91773 -8.82272
3 -8.11802 1.29085 8.87606
1 -5.33684 -6.23764 -8.86149
1 2.6337 -7.74804 8.88069
2 8.03865 -1.59651 -8.84111
1 4.10954 5.53988 11.2595
2 -3.07357 6.20028 -10.9482
2 -6.73577 0.679723 10.9591
1 -4.0776 -5.48235 -11.1726
2 2.81227 -6.10372 11.2288
1 6.65638 -0.638542 -11.0613
2 8.24264 10.9384 2.28354
2 -5.43993 12.4621 -2.12967
2 -13.4884 1.58764 2.27935
2 -8.22615 -10.9885 -2.27688
3 5.38887 -12.4241 2.19086
2 13.633 -1.58536 -2.25292
3 6.78547 10.2191 4.36748
2 -5.41281 10.8923 -4.43454
1 -12.0757 0.738026 4.57686
1 -6.80444 -10.0951 -4.33183
2 5.38 -10.8105 4.35921
1 11.9831 -0.62505 -4.50641
3 5.40527 9.18151 6.74347
3 -5.50806 9.26084 -6.6411
2 -10.7631 -0.041146 6.64192
1 -5.5522 -9.34698 -6.64861
2 5.43781 -9.346 6.79078
2 10.8895 0.0296337 -6.72053
1 4.01823 8.53779 8.94814
1 -5.32034 7.92395 -8.95411
2 -9.44925 -0.863548 8.8375
2 -3.95332 -8.61028 -8.78013
3 5.40452 -7.71104 9.01282
2 9.43741 0.864859 -8.82491
2 2.76261 7.89555 11.1928
1 -5.47919 6.18251 -11.1446
2 -8.09685 -1.62668 10.9702
1 -2.66515 -7.98003 -10.989
1 5.35537 -6.19489 11.1806
2 7.93153 1.52925 -10.8546
1 19.0118 -0.0125695 -0.0471325
1 9.52642 16.3475 0.0551632
3 -9.44805 16.3865 0.00278855
2 -18.9494 0.0440869 0.0244161
2 -9.47011 -16.3034 0.0324021
2 9.39255 -16.3212 -0.0638466
3 9.581 -5.42144 15.4423
3 -0.13649 10.9254 15.3976
2 -9.65073 -5.53395 15.4363
2 0.0751811 -10.8811 -15.5568
1 9.59663 5.45307 -15.3824
2 -9.54615 5.41048 -15.3555
3 17.7328 2.27182 -0.112125
3 17.6361 -0.813708 2.02164
1 17.6629 0.720229 -2.19411
3 6.76982 16.2879 0.0258203
2 7.97844 15.5033 2.25157
2 9.56545 14.8836 -2.19597
3 -10.7139 14.1046 0.191928
2 -8.06487 15.5496 2.12746
1 -9.52519 14.7975 -2.1005
3 -17.4063 -2.40347 -0.127292
1 -17.5406 -0.879075 2.04326
3 -17.6822 0.975996 -2.06723
3 -6.88048 -16.408 0.072393
1 -9.51731 -14.8105 2.23284
1 -8.35056 -15.6776 -2.16279
2 10.8939 -14.0047 -0.115705
2 9.57139 -14.7724 2.00038
1 8.08335 -15.5072 -2.28196
3 8.25238 -3.11112 15.3974
2 6.9832 -5.46316 15.5187
2 -1.42675 8.46267 15.636
3 1.36689 -8.74323 -15.3728
2 -1.27272 -8.62448 -15.4828
1 6.80245 5.48158 -15.3944
2 16.3089 4.55494 -0.0582689
2 16.1571 -1.53391 4.44993
3 16.2992 1.5371 -4.34739
2 4.16978 16.3643 -0.109038
1 6.75481 14.8204 4.37985
2 9.5113 13.3332 -4.5258
2 -12.131 11.7148 -0.0520969
1 -6.80941 14.7731 4.50319
3 -9.37005 13.2666 -4.37169
3 -16.1972 -4.5849 -0.0902153
2 -16.0243 -1.65781 4.58187
1 -16.2391 1.65578 -4.35341
1 -4.07841 -16.2461 0.017956
3 -9.45347 -13.1558 4.40768
2 -6.61788 -14.6446 -4.49336
2 12 -11.6201 0.00505663
1 9.38249 -13.097 4.4252
1 6.62666 -14.6547 -4.35892
1 6.69841 -0.766792 15.5084
2 4.14151 -5.41542 15.4436
1 -2.66588 6.22461 15.4809
3 2.71049 -6.20996 -15.3397
1 -2.72576 -6.25295 -15.5547
3 3.99181 5.53484 -15.352
3 14.9467 6.87144 -0.0175802
1 14.6683 -2.35867 6.57257
1 14.8701 2.36513 -6.6942
3 1.33393 16.3353 0.120393
1 5.34563 14.0199 6.6168
3 9.55616 11.586 -6.54792
1 -13.5599 9.37752 -0.0880766
2 -5.48754 13.9022 6.74707
1 -9.43968 11.8281 -6.62513
3 -14.9174 -6.84786 -0.120405
2 -14.6174 -2.48665 6.62082
1 -14.904 2.28311 -6.71472
2 -1.38709 -16.3498 0.157242
2 -9.6331 -11.7403 6.59694
2 -5.43508 -13.9625 -6.6661
1 13.3876 -9.2446 -0.211229
3 9.38112 -11.5097 6.6552
1 5.36857 -14.0101 -6.6061
3 5.44691 1.58368 15.5231
3 1.46943 -5.45523 15.5619
1 -3.9874 3.83304 15.563
3 4.01208 -3.92849 -15.3536
2 -4.01926 -3.81627 -15.3818
3 1.22818 5.45278 -15.3942
2 13.4956 9.27887 0.0667823
2 13.3313 -3.21587 8.93383
3 13.5126 3.03195 -8.85133
2 -1.18914 16.406 0.052568
1 4.05295 13.1797 8.84568
3 9.46173 10.0638 -8.88568
2 -14.9996 7.0021 -0.0437414
2 -3.99772 13.1258 8.85267
3 -9.55835 10.1183 -8.79055
3 -13.5215 -9.34573 0.0340131
2 -13.332 -3.28489 8.84663
2 -13.5527 3.09813 -8.74425
3 1.42769 -16.3182 0.00818716
2 -9.51406 -10.0586 8.94063
3 -4.0216 -13.1967 -8.83612
2 14.86 -7.02607 -0.0235948
1 9.46945 -10.0496 8.76685
3 4.01366 -13.2073 -8.73549
2 4.0098 4.00807 15.6645
3 -1.26615 -5.40028 15.4146
1 -5.38325 1.54119 15.4635
2 5.30595 -1.57438 -15.3483
1 -5.27015 -1.53604 -15.4111
2 -1.36011 5.34643 -15.5279
2 12.1482 11.7013 -0.111769
3 12.3494 -3.92723 11.1257
2 12.1576 3.93546 -10.8584
1 -4.03223 16.2969 0.0597556
3 2.75816 12.526 10.9686
3 9.50241 8.53554 -10.9833
3 -16.2293 4.737 0.000932972
3 -2.69025 12.4074 11.0658
2 -9.53529 8.72507 -11.2863
2 -12.3514 -11.6492 0.0638336
1 -12.1712 -3.99125 11.0698
1 -12.1106 3.76277 -11.1089
3 4.23245 -16.2355 0.0401352
3 -9.48162 -8.49097 11.1623
1 -2.6232 -12.6373 -10.8651
2 16.1567 -4.53202 -0.0161787
1 9.56276 -8.52818 11.0127
1 2.73252 -12.4051 -10.9333
1 2.5874 6.31432 15.484
2 -3.98041 -5.59322 15.5392
3 -6.76965 -0.744889 15.5147
1 6.69652 0.701887 -15.2577
1 -6.76427 0.789136 -15.5359
1 -4.04663 5.4401 -15.3359
2 10.9248 14.0043 0.0753213
2 10.7629 -4.59485 13.3659
2 10.8335 4.82002 -13.0611
2 -6.77962 16.4232 0.0693868
2 1.30707 11.6556 13.202
2 9.33984 7.1411 -13.1578
2 -17.6432 2.46759 0.0136543
3 -1.3048 11.6367 13.1826
3 -9.61608 6.99351 -13.2597
3 -10.8446 -14.0013 -0.121672
3 -10.8391 -4.88525 13.2438
2 -10.8558 4.68914 -13.1947
1 6.76067 -16.3839 0.113407
3 -9.42153 -7.05174 13.198
1 -1.54489 -11.7149 -13.2207
3 17.5847 -2.34396 -0.0550903
2 9.51471 -6.93263 13.2262
2 1.23988 -11.7362 -13.1465
3 1.3605 8.74231 15.5341
2 -6.76513 -5.48924 15.4482
2 -8.03938 -3.24742 15.5146
2 8.0646 3.0473 -15.2507
2 -8.1295 3.06206 -15.2495
2 -6.98421 5.37893 -15.2808
3 16.3268 3.01845 -2.16552
1 5.32001 15.7919 2.21244
2 -10.8007 12.4865 -2.18264
2 -16.2165 -3.14603 2.11915