3043
 Atoms. Timestep: 6000
2 0.0275451 0.0475047 0.0197062
3 2.71798 0.0392205 0.0581265
2 1.31902 2.36689 0.0381853
2 -1.46824 2.2461 0.00762457
3 -2.51248 -0.0761498 -0.0655355
2 -1.37919 -2.29716 0.104519
2 1.33994 -2.22584 0.0634614
1 1.14488 -0.718297 2.24113
3 -0.0110795 1.66248 2.07951
2 -1.45069 -0.803329 2.16985
2 0.0223065 -1.58902 -2.12023
3 1.33173 0.763417 -2.10035
2 -1.33543 0.771882 -2.19913
2 5.32888 -0.233402 0.00815946
2 2.84552 4.58853 -0.121851
1 -2.72668 4.73501 0.0625928
3 -5.4132 -0.0590694 -0.0126022
1 -2.63003 -4.53408 0.116337
2 2.97846 -4.60344 -0.0852477
1 2.65837 -1.42803 4.31271
3 0.0690906 3.29735 4.4883
2 -2.89852 -1.55395 4.59669
1 0.00664539 -3.20056 -4.35862
1 2.67964 1.46543 -4.28065
2 -2.76897 1.62805 -4.33271
2 4.09273 2.19475 0.212955
2 4.28406 -0.716103 2.25804
2 3.93551 0.706031 -2.27471
1 -0.0852397 4.63161 -0.0171728
2 1.488 3.9426 2.32934
2 2.71096 2.96291 -2.13038
1 -4.04257 2.21186 -0.215384
2 -1.21665 4.0003 2.31989
1 -2.68544 3.03413 -2.22678
2 -4.1833 -2.3273 -0.112289
2 -4.13524 -0.833572 2.08377
3 -3.94993 0.740778 -2.22045
2 0.0110811 -4.57969 0.0267565
2 -2.84935 -3.09743 2.18071
2 -1.42271 -3.92955 -2.24332
3 4.04116 -2.30488 0.0668687
3 2.4167 -3.11164 2.2
2 1.45599 -4.10616 -2.35036
1 1.38175 0.936605 4.45237
2 -0.0866595 -1.503 4.51574
1 -1.32545 0.872559 4.45823
1 1.52436 -0.857569 -4.32547
2 -1.34033 -0.930873 -4.43708
1 -0.124943 1.44414 -4.38579
2 2.64002 1.44247 2.301
1 0.0427526 3.12429 -2.25251
1 -2.7392 1.38482 2.16333
1 -2.69847 -1.67397 -2.31703
3 -0.143145 -3.10183 2.22936
3 2.69687 -1.79293 -2.14782
2 7.96745 -0.00720381 0.163649
1 3.9471 7.07737 -0.0294466
2 -4.04853 7.00631 0.0667403
1 -8.03987 -0.143063 -0.0950331
1 -3.99138 -6.98998 -0.106033
2 3.87324 -7.15775 -0.000513572
2 4.09734 -2.44651 6.72009
1 0.232522 4.62362 6.59711
2 -4.01574 -2.42756 6.73768
3 0.0686295 -4.79732 -6.60963
2 4.06808 2.13091 -6.66066
2 -4.14048 2.25648 -6.74223
2 6.76862 2.36378 -0.107788
3 6.95903 -1.13147 2.29855
1 6.67792 0.793419 -2.13468
2 1.38553 6.91211 0.0345521
3 2.72382 6.30539 2.20112
3 4.1043 5.44814 -2.31264
2 -5.52074 4.81785 0.100187
1 -2.52677 6.26537 2.18779
2 -4.00319 5.62541 -2.19863
2 -6.83611 -2.36517 -0.0987615
1 -6.73922 -0.921444 2.19284
2 -6.5702 0.879983 -2.28986
1 -1.32592 -6.99925 -0.0765227
2 -4.21063 -5.49444 2.318
2 -2.702 -6.21922 -2.27567
1 5.42343 -4.59204 -0.100555
2 3.8165 -5.51661 2.39417
3 2.7428 -6.35037 -2.24497
1 2.84668 0.168182 6.75541
2 1.3309 -2.26179 6.68179
2 -1.06857 2.38263 6.53008
1 1.41912 -2.37234 -6.73734
1 -1.31694 -2.56679 -6.64901
2 1.30651 2.43226 -6.68234
1 5.53635 4.82517 0.0058283
1 5.46051 -1.61523 4.42794
3 5.41199 1.51282 -4.50364
2 -1.40875 6.96743 -0.275179
1 1.45504 5.62972 4.38168
1 4.04167 3.87977 -4.49625
1 -6.64399 2.40282 -0.0780063
2 -1.16432 5.48646 4.5219
2 -4.14189 3.94816 -4.36202
3 -5.41688 -4.57397 0.19103
3 -5.5388 -1.60118 4.52485
3 -5.37406 1.64816 -4.59106
2 1.41323 -7.04052 0.13212
3 -3.99625 -3.86911 4.62315
1 -1.35912 -5.45591 -4.38177
1 6.88831 -2.31121 0.0309758
1 3.9305 -3.92736 4.4987
1 1.45704 -5.62107 -4.48963
2 1.59983 2.44208 6.68267
1 -1.41376 -2.38943 6.60598
2 -2.62971 -0.0187205 6.67604
2 2.73285 0.000466854 -6.57159
2 -2.56533 -0.0266906 -6.83537
2 -1.49111 2.36406 -6.67726
2 5.41609 3.02884 -2.36169
2 -0.00364202 6.2519 2.20263
1 -5.28659 3.11138 -2.32825
3 -5.52338 -3.108 2.33127
2 0.119937 -6.36845 -2.20909
2 5.25201 -3.22707 2.22346
1 0.155218 0.123629 6.71789
2 0.037481 0.0189137 -6.6737
1 5.63354 1.50626 2.07013
1 1.24725 5.48616 -2.34082
2 -4.14544 3.87268 2.4118
2 -5.32933 -1.52245 -2.36209
2 -1.34348 -5.51636 2.12185
3 3.98791 -4.01292 -2.3155
1 4.13367 0.761858 4.4312
1 1.23289 3.92945 -4.50181
2 -2.62069 3.15908 4.57303
2 -4.02199 -0.695609 -4.40609
2 -1.43063 -3.90736 4.20342
1 2.78133 -3.2395 -4.36749
2 4.07699 4.04428 2.20405
3 -1.45842 5.35324 -2.21813
2 -5.46485 1.66001 2.18501
3 -3.88318 -4.04288 -2.25022
2 1.23306 -5.38472 2.05789
1 5.25554 -1.65775 -2.26976
3 2.91794 3.14956 4.34757
3 -1.5498 3.8736 -4.31008
1 -3.96082 0.724319 4.47622
2 -2.83281 -3.22335 -4.55276
2 1.24479 -3.76787 4.33518
3 4.0656 -0.866754 -4.47908
2 10.8136 0.0806158 0.0589656
1 5.37038 9.56499 -0.0425293
3 -5.44886 9.42137 0.116372
2 -10.6873 -0.0548564 -0.0732121
2 -5.40706 -9.20434 0.108674
1 5.39127 -9.57365 -0.0781648
2 5.22276 -3.0923 8.90137
2 -0.031208 6.28857 8.91541
2 -5.33576 -3.26467 8.87265
3 -0.04464 -6.51978 -8.91952
1 5.33614 3.04091 -8.70954
2 -5.55633 3.29574 -8.87221
2 9.53127 2.35185 0.0863264
2 9.42795 -0.713785 2.22594
1 9.49746 0.733876 -2.19024
1 2.83706 9.31127 0.00826175
1 4.098 8.6887 2.20733
2 5.43522 7.99714 -2.17501
2 -6.69569 6.97383 0.0378386
1 -4.0074 8.63632 2.21874
1 -5.43268 7.91958 -2.18437
3 -9.54925 -2.2737 -0.16457
2 -9.54837 -0.924836 2.24292
3 -9.34248 0.75162 -2.28037
3 -2.66221 -9.36761 0.0414091
1 -5.41473 -7.67598 2.19047
1 -3.97316 -8.68015 -2.19419
2 6.90263 -7.15502 0.0314301
2 5.24798 -7.94149 2.30628
1 4.09248 -8.77207 -2.41493
2 4.01021 -0.693742 8.91572
2 2.78224 -3.09602 8.91042
2 -1.25482 3.86788 8.89646
2 1.22646 -4.25249 -8.87045
2 -1.4236 -4.06373 -9.00697
2 2.71855 3.12026 -8.85829
3 8.12474 4.686 0.0687827
1 8.06014 -1.68204 4.57322
3 8.09173 1.44469 -4.35375
3 0.128918 9.34318 -0.118314
3 2.74196 7.8063 4.30628
2 5.33741 6.28434 -4.37789
3 -8.12217 4.55059 -0.0550595
1 -2.75342 7.54836 4.3727
1 -5.40404 6.34271 -4.33756
1 -8.17142 -4.57582 -0.157258
1 -8.1045 -1.58407 4.48699
2 -8.10753 1.74015 -4.38893
1 0.0855961 -9.51007 -0.0667041
1 -5.28783 -6.21793 4.3874
3 -2.81378 -7.61385 -4.56703
3 8.1534 -4.89217 -0.148328
2 5.19023 -6.29814 4.4596
1 2.72013 -7.80919 -4.47849
3 2.92533 1.6648 8.92255
1 0.111785 -2.97588 8.8123
2 -2.67931 1.6168 8.85284
2 2.76838 -1.69583 -8.89432
2 -2.54442 -1.54804 -8.80108
3 -0.0829478 3.19799 -8.92199
2 6.7316 7.16915 -0.0339356
3 6.69891 -2.38264 6.68358
1 6.81261 2.30405 -6.60835
2 -2.62721 9.35333 0.0563896
3 1.42943 7.00732 6.5791
1 5.466 4.70935 -6.67152
2 -9.32765 2.32023 -0.213098
1 -1.18886 6.95904 6.62921
2 -5.59153 4.66669 -6.59648
1 -6.88846 -6.92372 0.0135364
2 -6.67126 -2.40057 6.78977
3 -6.82027 2.35739 -6.64538
2 2.7796 -9.54044 -0.109856
3 -5.24793 -4.73685 6.62927
1 -1.40004 -7.21025 -6.81585
2 9.39398 -2.31494 -0.113176
1 5.33556 -4.6778 6.68085
3 1.31247 -7.25878 -6.75442
2 1.47115 4.00526 8.87562
2 -2.67342 -2.9519 8.83628
3 -3.97266 -0.732508 8.88466
3 3.90796 0.617739 -8.91509
2 -4.05891 0.884702 -8.92748
3 -2.83468 3.26905 -8.88164
3 8.23137 3.05014 -1.97434
1 1.35326 8.55411 2.25788
2 -6.73076 5.61712 -2.11809
2 -8.14133 -3.01128 2.16521
2 -1.23839 -8.61747 -2.22881
1 6.6792 -5.62062 2.20186
1 1.48415 -0.604248 9.02172
1 0.0492259 -1.58749 -8.81047
2 6.90151 3.77112 -4.2966
3 -0.0809894 7.91864 4.18777
3 -6.66173 3.83678 -4.498
2 -6.6229 -3.90983 4.5343
2 0.0357644 -7.98729 -4.61108
2 6.6235 -4.09992 4.51513
1 -1.3465 -0.748849 8.68842
3 -1.26841 0.815961 -8.80603
3 8.22983 1.5334 2.32444
2 2.65411 7.9261 -2.28154
3 -5.43082 6.09811 2.30239
2 -8.05508 -1.56526 -2.35722
1 -2.67131 -7.86678 2.27327
3 5.45958 -6.37237 -2.10352
1 6.80042 0.68257 4.44887
1 2.62444 6.27799 -4.48006
1 -4.19083 5.40173 4.48078
2 -6.76344 -0.720634 -4.50826
3 -2.70833 -6.18436 4.32281
3 4.00389 -5.45485 -4.66142
2 5.41354 0.138835 6.68117
3 2.81389 4.53222 -6.68486
1 -2.44463 4.6294 6.67982
1 -5.36819 0.102078 -6.77981
2 -2.75482 -4.71699 6.67612
1 2.59154 -4.80909 -6.81002
2 6.79868 5.4686 -2.13649
1 -1.37968 8.5576 2.00071
3 -7.91771 3.33085 -2.38057
2 -6.70757 -5.39644 2.25583
1 1.46763 -8.71376 -2.33642
1 8.18513 -3.35067 2.23603
3 0.0857854 1.59784 8.91169
2 1.44227 0.816117 -8.67409
1 6.73126 3.79618 2.30403
3 0.114624 8.00816 -2.17194
3 -6.81827 3.92432 2.14046
3 -6.61192 -3.89783 -2.19333
3 0.0580177 -7.78263 2.20327
3 6.93431 -3.8826 -2.31089
2 5.36985 2.95078 4.35864
3 -0.0947371 6.17706 -4.58973
1 -5.55464 3.05661 4.32889
1 -5.3422 -3.08835 -4.34729
2 -0.119491 -6.40449 4.5046
2 5.3547 -3.16778 -4.34647
3 4.15044 2.50143 6.62174
1 0.0385218 4.70071 -6.84139
1 -3.78798 2.32663 6.60459
1 -3.9924 -2.33892 -6.85386
2 -0.0797652 -4.80792 6.49077
2 4.06104 -2.47332 -6.62581
2 5.24434 6.27892 2.08962
2 -2.71924 8.01496 -2.2766
2 -8.10037 1.43278 2.20653
3 -5.44432 -6.20626 -2.2491
1 2.72612 -8.09916 2.35429
1 8.12158 -1.535 -2.2656
2 4.04601 5.424 4.47912
2 -2.68414 6.27123 -4.49027
3 -6.81818 0.733691 4.35658
2 -4.11484 -5.42589 -4.47496
1 2.57176 -6.36161 4.69551
2 6.71637 -0.709764 -4.37242
3 2.76539 4.77533 6.57617
2 -2.8378 4.58708 -6.60841
1 -5.4572 0.0747346 6.75242
3 -2.642 -4.66273 -6.74643
1 2.52455 -4.5589 6.8066
1 5.4437 -0.0244561 -6.67791
2 13.5882 0.0996982 0.199705
3 6.70932 11.9051 0.100079
2 -6.79717 11.7957 -0.0906018
2 -13.5066 0.0401808 0.00619434
2 -6.86523 -11.4352 0.00215757
3 6.63019 -11.9185 -0.0782863
2 6.75723 -3.95434 11.1739
1 -0.159608 7.89717 11.0745
2 -6.59764 -3.97143 11.0214
1 -0.0428066 -8.06942 -11.2301
2 7.04623 3.97393 -11.1904
2 -6.91386 3.98864 -11.1172
3 12.328 2.31375 -0.0182859
2 12.1566 -0.606796 2.35052
2 12.1783 0.829423 -2.16171
2 4.02308 11.8204 0.0500757
2 5.38195 10.8981 2.15314
1 6.88978 10.1848 -2.13324
1 -7.96845 9.24206 -0.0699666
1 -5.39627 10.9036 2.06532
3 -6.83058 10.2518 -2.18506
2 -12.2418 -2.2746 -0.0225682
2 -12.216 -0.947773 2.33251
1 -12.0301 0.790592 -2.16731
2 -3.98752 -11.6005 0.136866
1 -6.88236 -9.93948 2.08163
2 -5.30138 -10.6985 -2.05624
1 8.12055 -9.57469 -0.198867
2 6.67203 -10.3413 1.98942
2 5.33462 -11.0306 -2.26193
2 5.31647 -1.34913 11.2103
2 4.07718 -3.80728 11.1984
1 -1.33356 5.60237 11.0401
1 1.33424 -5.47537 -11.1473
2 -1.42314 -5.77322 -11.0708
2 4.13947 3.982 -11.1129
1 10.9292 4.7844 0.171176
3 10.8638 -1.30811 4.3701
3 10.9136 1.44533 -4.44312
1 1.4673 11.7051 -0.124723
1 3.91387 10.2802 4.49508
1 6.89839 8.55676 -4.42824
2 -9.39945 6.88249 -0.246597
1 -4.00171 10.103 4.51281
2 -6.74326 8.76886 -4.30555
1 -10.9497 -4.69051 -0.117768
3 -10.9 -1.66959 4.29948
3 -10.8906 1.39763 -4.46359
3 -1.26975 -11.7006 0.0438846
2 -6.71678 -8.65989 4.21539
2 -3.91623 -10.2139 -4.28938
1 9.60153 -7.11807 -0.245758
1 6.53526 -8.5408 4.45672
2 4.03312 -10.2479 -4.67989
3 4.042 0.869616 11.1802
3 1.38036 -3.81258 11.0537
2 -2.64107 3.20715 10.991
2 2.68701 -3.35934 -11.2019
2 -2.8692 -3.27943 -11.0817
2 1.39546 3.71374 -11.0802
1 9.58823 7.0306 0.0377698
2 9.42352 -2.40139 6.48192
2 9.30337 2.43576 -6.61691
2 -1.37852 11.6949 -0.0747659
3 2.69335 9.35677 6.66694
2 7.00805 7.00983 -6.75786
1 -10.8792 4.69063 0.0401365
1 -2.46063 9.17602 6.79585
2 -6.70835 7.10993 -6.6127
1 -9.59727 -7.13627 0.0107146
1 -9.60353 -2.17048 6.74539
1 -9.62617 2.37426 -6.62679
3 1.39767 -11.8358 -0.207565
1 -6.62453 -7.10458 6.74101
2 -2.56266 -9.43101 -6.60609
1 10.8773 -4.64842 0.0403692
2 6.75363 -6.84161 6.63374
2 2.65651 -9.38601 -6.77291
2 2.63078 3.21496 11.1273
1 -1.28316 -3.88807 10.9422
2 -4.07011 0.861384 10.9613
1 4.26759 -0.862201 -11.0891
2 -4.07692 -0.897158 -11.2099
2 -1.5132 3.81005 -10.8198
1 8.15106 9.47967 0.159407
2 7.98426 -3.18404 9.01477
3 8.07075 3.03561 -8.83652
2 -4.08494 11.7859 0.0362974
1 1.32567 8.66037 8.98468
2 6.54044 5.48182 -8.93701
2 -12.2954 2.20156 0.0215833
2 -1.24244 8.71278 9.00566
3 -6.89236 5.53394 -8.85858
3 -8.2453 -9.23013 0.0139183
1 -8.10191 -3.13817 9.07477
2 -8.17572 3.0889 -8.958
3 4.00824 -11.8169 -0.0998834
2 -6.65791 -5.44883 8.93504
3 -1.3517 -8.77101 -8.97022
1 12.1019 -2.31279 0.152373
2 6.64277 -5.51438 8.82266
1 1.32356 -8.7537 -8.91692
2 1.24047 5.62584 11.1981
2 -3.92154 -3.95133 11.0853
2 -5.24793 -1.48477 11.0141
1 5.45683 1.78483 -11.0955
2 -5.31114 1.64628 -11.2728
1 -4.11273 3.90393 -11.188
1 10.9394 3.13728 -2.13831
3 2.76367 11.0606 2.26798
1 -8.239 8.03125 -2.34542
2 -10.8689 -3.21098 2.21224
1 -2.47727 -10.9898 -2.02755
2 7.99879 -7.93256 2.43774
3 2.61491 -1.53233 11.0165
2 -0.246447 -3.32705 -11.1869
1 9.54992 3.75959 -4.3208
2 1.43651 10.0101 4.22503
1 -8.17336 6.08718 -4.82799
2 -9.3093 -3.86727 4.44149
2 -1.36556 -10.463 -4.39886
2 8.17594 -6.18208 4.4648
3 0.0052533 -1.49308 11.0654
1 -1.34948 -1.01751 -11.0369
2 8.12621 4.69269 -6.72155
2 0.126605 9.36115 6.52644
2 -8.22735 4.45775 -6.79918
1 -7.91487 -4.65817 6.55043
3 -0.0027331 -9.62415 -6.65491
3 8.11794 -4.64048 6.70086
2 -2.56286 -1.47063 10.9774
2 -2.5822 1.57355 -10.9224
3 10.7315 1.53743 2.23221
3 4.11764 10.2951 -2.13506
2 -6.86127 8.66927 2.18108
2 -10.7283 -1.50662 -2.37339
2 -3.88674 -9.89131 2.32738
1 6.7322 -8.83757 -2.36326
2 9.36476 0.799712 4.61115
1 4.09401 8.71844 -4.47951
3 -5.35346 7.83347 4.49708
2 -9.35979 -0.69659 -4.41828
1 -3.98717 -8.52272 4.52495
1 5.54105 -7.52598 -4.38323
3 7.90357 -0.159371 6.7308
2 4.11584 7.08738 -6.53762
1 -4.07625 7.05769 6.58823
2 -8.06654 0.172224 -6.80187
1 -3.98151 -7.06298 6.68953
1 3.98523 -7.14513 -6.63995
1 6.70785 -1.03653 8.99874
2 3.92286 5.61265 -8.72604
1 -2.72228 6.33179 8.85065
1 -6.75347 0.738117 -8.97645
2 -4.0788 -5.44365 8.79865
2 2.6666 -6.62936 -8.88955
3 9.41016 5.42508 -2.12131
2 0.113318 10.8954 1.99085
2 -9.2827 5.58004 -2.39098
2 -9.47968 -5.33335 2.39512
2 0.1282 -11.0457 -2.21417
1 9.55332 -5.76877 2.13771
3 1.41887 0.836963 11.0827
2 1.51373 -0.780163 -10.9453
2 8.14689 6.23639 -4.34123
2 -1.30768 10.1078 4.3132
3 -9.48897 3.89973 -4.52018
3 -8.06596 -6.3514 4.41013
3 1.28313 -10.2924 -4.55794
2 9.51306 -3.81853 4.32095
2 -1.22799 0.96958 10.9645
2 0.0944492 1.44893 -10.8897
2 9.46951 3.83742 2.22606
2 1.54786 10.2676 -2.17256
2 -8.17291 6.0604 2.17219
2 -9.4101 -3.73748 -2.34764
3 -1.28449 -10.1244 2.23363
2 8.22491 -6.4907 -2.22831
2 8.01719 3.10775 4.53146
1 1.31687 8.52284 -4.34693
3 -6.9185 5.54396 4.41415
2 -8.08587 -3.12381 -4.55179
3 -1.30388 -8.72346 4.58945
2 6.87459 -5.57164 -4.43695
2 6.72269 2.43327 6.68406
2 1.39503 6.95166 -6.63774
2 -5.39472 4.50256 6.60261
2 -6.62 -2.25836 -6.65825
1 -1.32946 -7.10699 6.58055
2 5.46495 -4.81505 -6.64611
3 5.44322 1.55767 8.84499
2 1.41116 5.61418 -8.97712
3 -4.04515 4.06312 8.82835
3 -5.26084 -1.61848 -9.04189
2 -1.23452 -5.36765 8.89659
1 3.95103 -4.0283 -8.9326
2 8.11682 7.74925 -2.28213
3 -2.54522 10.9824 2.21509
1 -10.6591 3.12733 -2.26134
3 -8.04948 -7.57197 2.19592
2 2.68753 -11.0304 -2.19303
2 10.8941 -3.07491 2.21226
3 0.184763 3.26343 10.9814
2 2.72592 1.55265 -11.1285
2 8.15437 6.39012 2.14291
2 -1.33418 10.2498 -2.18163
3 -9.35577 3.70965 2.03138
3 -8.23806 -6.12275 -2.20878
2 1.31302 -10.2787 2.16138
2 9.63403 -4.04472 -2.13174
2 6.84047 5.61333 4.49129
2 -1.20708 8.66538 -4.44434
2 -8.18942 3.33295 4.26951
2 -6.76122 -5.53821 -4.39346
2 1.30242 -8.53934 4.33489
1 8.05745 -3.16059 -4.43989
1 5.46964 4.75568 6.88978
2 -1.37293 7.0039 -6.65982
2 -6.70119 2.40071 6.43537
1 -5.36538 -4.62876 -6.51237
1 1.40276 -7.0237 6.85411
2 6.7905 -2.32775 -6.63788
2 4.10795 3.84488 8.87259
2 -1.4299 5.48979 -8.85811
2 -5.51721 1.67204 8.81798
2 -4.09713 -4.04175 -8.73047
1 1.28757 -5.49667 8.98661
2 5.52835 -1.70482 -8.86547
2 6.77955 8.65733 2.24834
1 -4.08934 10.1187 -2.11726
1 -10.8047 1.55841 2.06644
1 -6.8234 -8.53972 -2.19332
3 4.20193 -10.31 1.96248
1 10.7623 -1.68051 -2.17877
2 5.44119 7.90447 4.52754
3 -4.16732 8.57804 -4.3854
2 -9.573 0.690437 4.46571
2 -5.40076 -7.64463 -4.54493
3 4.01194 -8.58344 4.66067
1 9.53576 -0.734347 -4.47096
2 3.99635 7.00213 6.56871
2 -3.88882 7.02323 -6.62684
1 -8.12637 0.0459977 6.73163
2 -4.01212 -7.16258 -6.78145
3 4.10485 -6.86895 6.77301
3 8.16158 0.0143471 -6.5438
2 2.64819 6.38793 8.69891
1 -4.10912 5.5959 -9.11928
2 -6.72451 -0.850893 8.89726
1 -2.65842 -6.45347 -8.98846
3 3.87918 -5.26935 8.92035
1 6.77727 0.679008 -8.85149
2 16.333 0.0343017 0.0224425
2 8.08273 14.2108 -0.0809282
2 -8.25391 14.196 -0.0509818
2 -16.3384 -0.154947 0.0633101
2 -8.31163 -13.8905 0.076344
3 8.29214 -14.2252 0.19666
1 8.62848 -4.93368 13.5565
2 0.0966658 9.4377 13.346
2 -7.99086 -4.49721 13.4341
1 -0.0385489 -9.50219 -13.3882
3 8.30235 4.59971 -13.5658
3 -8.10942 4.81298 -13.3073
1 14.8899 2.26175 0.253737
1 15.0634 -0.710552 2.27279
2 15.0991 0.812778 -2.22575
3 5.42756 14.1901 0.0914433
2 6.85201 13.4069 2.25535
2 8.20222 12.4214 -2.13153
1 -9.3861 11.6652 0.055108
1 -6.70008 13.3788 2.21391
2 -8.11858 12.6792 -2.25133
3 -14.8484 -2.35976 -0.146607
2 -14.8322 -0.880521 2.20817
2 -14.9108 0.637259 -2.17174
1 -5.33606 -13.9004 0.0866779
1 -8.18564 -12.4436 2.18109
3 -6.7556 -12.9074 -2.18288
3 9.37571 -11.8114 -0.0536107
2 8.12335 -12.5003 2.18634
3 6.64405 -13.3791 -2.35858
2 6.62057 -2.13517 13.3406
1 5.52858 -4.65429 13.4516
2 -1.42786 7.14997 13.5094
3 1.33582 -7.12893 -13.3045
3 -1.25299 -7.18985 -13.3461
2 5.29937 4.73917 -13.3722
2 13.6439 4.70065 0.0896777
1 13.5728 -1.34914 4.33269
2 13.7266 1.51161 -4.47238
3 2.84477 14.2224 0.068418
2 5.31173 12.4047 4.63974
1 8.25552 10.8159 -4.4159
2 -10.9136 9.20065 -0.210906
1 -5.47275 12.3695 4.43635
1 -7.97109 11.067 -4.30159
2 -13.524 -4.6296 0.00450677
1 -13.7919 -1.63964 4.41701
3 -13.5256 1.35393 -4.39179
2 -2.72733 -13.893 -0.0555869
3 -8.13706 -10.787 4.50454
2 -5.43007 -12.3689 -4.44649
3 10.8506 -9.39668 -0.160144
2 7.99538 -10.7461 4.29007
3 5.36997 -12.5576 -4.39887
3 5.18289 0.256981 13.3114
3 2.61076 -4.70659 13.1997
1 -2.76353 4.68293 13.2066
2 2.73067 -4.87766 -13.4046
2 -2.67343 -4.85308 -13.2559
3 2.5998 4.71623 -13.2379
2 12.3076 7.21009 0.269474
3 12.0104 -2.08591 6.45374
2 12.2464 2.34318 -6.56793
2 -0.0759963 13.9631 -0.0652638
1 3.81969 11.5774 6.90145
2 8.14016 9.34951 -6.47407
2 -12.0314 6.76882 -0.246748
1 -4.03055 11.5164 6.86976
2 -8.07079 9.61284 -6.65471
2 -12.1555 -7.01513 -0.0168064
2 -12.4805 -2.37159 6.55919
1 -12.2244 2.23012 -6.61442
2 0.0651525 -14.032 0.00848336
2 -7.89392 -9.25473 6.68822
1 -4.01812 -11.4158 -6.67319
3 12.1803 -6.86564 -0.0132284
2 8.15032 -9.35037 6.51317
3 4.14534 -11.9539 -6.6264
1 4.01144 2.5421 13.1922
3 0.0987778 -4.70085 13.0542
2 -4.10532 2.29378 13.5014
1 4.0913 -2.4735 -13.3519
1 -4.06659 -2.60402 -13.3933
2 0.0801141 4.57688 -13.2428
1 10.8432 9.4394 0.00355928
2 10.7613 -3.09632 8.64718
2 10.8621 3.27216 -8.8452
2 -2.88992 14.1982 0.100186
2 2.59423 10.94 9.03477
3 8.22864 7.90882 -8.82328
2 -13.7164 4.60252 0.00705399
3 -2.76245 10.8209 8.86827
1 -8.09252 7.78745 -8.79988
2 -10.8568 -9.38519 -0.0858123
2 -10.8578 -3.05002 8.90132
3 -10.874 3.21829 -8.73017
2 2.77951 -14.1803 -0.140964
1 -7.99344 -7.73903 8.87223
3 -2.61616 -11.0769 -9.04706
2 13.7096 -4.64041 0.0149865
1 7.98811 -7.59722 8.90583
3 2.73816 -11.146 -8.93036
3 2.48175 4.65297 13.2701
1 -2.44488 -4.6666 13.2119
2 -5.45794 0.0916587 13.332
1 5.60175 -0.0417605 -13.1937
2 -5.50564 0.0498203 -13.3747
3 -2.46639 4.61973 -13.0459
2 9.72811 11.918 -0.0803926
2 9.32951 -3.81923 11.1894
3 9.61219 3.9628 -11.1799
2 -5.54818 14.1544 -0.0633909
2 1.17777 10.3668 11.1986
2 8.19684 6.27753 -11.1184
2 -14.9755 2.32563 0.0986217
3 -1.50705 10.1766 11.0774
2 -8.25638 6.3304 -11.1685
3 -9.48669 -11.6993 0.0564196
2 -9.47887 -3.81509 11.1216
1 -9.50139 4.00643 -11.108
1 5.45296 -14.1402 -0.114178
2 -8.03513 -6.28251 11.1097
1 -1.41466 -10.2654 -11.1367
2 14.9506 -2.15802 0.249371
3 8.03476 -6.17397 11.0842
2 1.26106 -10.4396 -11.1116
2 1.47547 6.90704 13.4428
2 -5.3865 -4.69976 13.3337
2 -6.67046 -2.29416 13.2271
1 6.77201 2.43558 -13.3511
1 -6.77078 2.38015 -13.3036
2 -5.322 4.53111 -13.3696
1 13.5702 2.99998 -2.20353
2 4.20999 13.1747 2.18847
2 -9.56981 10.277 -2.29038
2 -13.6352 -3.23739 2.12229
2 -4.10133 -13.1845 -2.139
2 9.44321 -10.0756 2.20055
3 4.1254 -2.32614 13.2583
2 -0.0146425 -4.72794 -13.3444
2 12.1507 4.11858 -4.40712
2 2.65035 12.3874 4.58383
2 -9.41938 8.60464 -4.61024
2 -11.9722 -4.00648 4.45975
2 -2.97395 -12.5848 -4.57167
2 9.52001 -8.54001 4.43917
3 1.35336 -2.47742 13.1558
3 -1.47553 -2.48398 -13.3191
1 10.83 4.61411 -6.63168
2 1.19904 11.6651 6.54211
2 -9.45944 6.9777 -6.69851
1 -10.7116 -4.71891 6.41066
1 -1.2294 -11.714 -6.69167
2 9.46858 -7.08358 6.62483
3 -1.17291 -2.44783 13.171
2 -2.55789 -0.00628155 -13.1471
1 9.50246 5.3975 -8.85514
3 0.0709729 10.9963 8.7985
2 -9.54852 5.57585 -8.91062
2 -9.5252 -5.69171 8.74667
2 0.0947637 -11.0047 -8.92647
2 9.48046 -5.48038 8.81384
2 -3.81184 -2.36686 13.4625
1 -4.01966 2.32389 -13.4582
3 13.5787 1.76552 2.32317
1 5.52121 12.5813 -2.1002
1 -8.02333 10.9279 2.17926
1 -13.5727 -1.58048 -2.26048
2 -5.28224 -12.4284 2.17877
1 8.14027 -11.1117 -2.21521
1 12.003 0.803362 4.60114
3 5.59692 10.9711 -4.45584
1 -6.61779 9.95036 4.62805
2 -12.2208 -0.909583 -4.58459
1 -5.42642 -10.9364 4.30779
2 6.79411 -10.2902 -4.51938
2 10.8426 0.138618 6.83028
2 5.41901 9.43077 -6.50154
2 -5.44196 9.21236 6.89336
2 -10.7632 0.0872342 -6.7227
3 -5.3814 -9.40841 6.61066
1 5.63306 -9.47896 -6.61564
2 9.29831 -0.903297 8.85945
1 5.42309 7.80486 -8.71946
3 -4.02626 8.59435 8.94305
3 -9.34822 0.697083 -8.95089
2 -5.45565 -8.07815 8.85427
3 4.11648 -8.78293 -8.79271
2 8.14081 -1.55377 11.3133
2 5.4359 6.17748 -11.1236
2 -2.85058 8.06311 11.1161
2 -7.90387 1.41745 -11.0375
3 -5.33269 -6.27416 11.0007
1 2.66 -7.99207 -11.0967
2 12.2934 5.46676 -1.95925
2 1.38256 13.2123 1.94235
2 -10.7386 7.75927 -2.49032
2 -12.3325 -5.63931 2.12971
2 -1.39209 -13.2446 -2.16777
1 10.8567 -7.93548 2.09513
2 2.71795 -0.0187802 13.1371
3 1.25696 -2.56933 -13.3294
1 10.7939 6.21995 -4.35512
2 -0.0780861 12.3641 4.33411
1 -11.0352 6.24839 -4.50148
1 -10.9301 -6.34335 4.41768
3 0.156245 -12.4527 -4.47495
2 10.7627 -6.16574 4.26422
2 -0.0256783 -0.0265293 13.1687
1 0.146595 -0.125542 -13.1697
1 9.63835 7.01319 -6.66389
2 -1.45117 11.7509 6.7817
2 -10.9146 4.61942 -6.65336
1 -9.41352 -7.01777 6.62739
2 1.531 -11.8967 -6.8354
2 10.8298 -4.83931 6.59155
2 -2.66897 0.0115752 13.4262
2 -1.29061 2.23911 -13.3318
2 12.1911 3.92163 2.21997
3 2.76342 12.6273 -2.20452
2 -9.39011 8.5507 2.25395
3 -12.1628 -4.03394 -2.18136
3 -2.71853 -12.5286 2.29995
2 9.47048 -8.70148 -2.35861
2 10.7526 3.20841 4.71772
1 2.817 11.1128 -4.47591
3 -8.11932 7.67007 4.48389
3 -10.809 -3.01475 -4.5631
2 -2.65016 -11.0816 4.46702
3 8.34421 -7.70841 -4.45439
3 9.25269 2.24188 6.85204
2 2.70154 9.56425 -6.68997
1 -6.79329 6.94152 6.61766
2 -9.4119 -2.23147 -6.70114
3 -2.65439 -9.40209 6.71204
1 7.03851 -7.16876 -6.68842
2 8.03417 1.49863 8.91872
3 2.7223 7.82917 -8.65783
1 -5.41437 6.27564 8.90798
1 -7.99535 -1.52531 -8.80261
1 -2.66191 -7.92823 8.96406
1 5.23297 -6.41286 -8.94748
2 6.6764 0.799617 11.1559
2 2.55111 6.21902 -11.1614
3 -4.1072 5.58899 11.191
3 -6.60855 -0.961968 -11.1584
2 -2.67213 -6.35701 10.9818
2 4.12705 -5.69074 -11.0999
1 10.7778 7.68032 -2.12646
2 -1.47919 13.3174 2.13114
2 -12.1277 5.21539 -2.38095
2 -10.6934 -7.81347 2.36921
2 1.30906 -13.4284 -2.36382
2 12.2746 -5.36484 2.07285
2 1.29888 2.4478 13.2605
2 2.69856 -0.271656 -13.2769
2 9.83625 8.62603 -4.48194
2 -2.76393 12.5885 4.3519
3 -12.3027 3.62973 -4.35063
3 -9.40891 -8.62729 4.44879
2 2.77794 -12.4741 -4.49784
2 12.1193 -3.71867 4.50308
3 -1.38836 2.49449 13.3161
3 1.45562 2.2664 -13.3597
2 10.9086 6.46003 2.28457
3 -0.0132392 12.4123 -2.28108
3 -10.7045 6.31015 2.11325
2 -10.8895 -6.28173 -2.31468
2 -0.131697 -12.5557 2.0846
2 10.7855 -6.45112 -2.61058
1 9.49538 5.54165 4.52572
2 -0.00867296 11.0486 -4.3963
3 -9.50859 5.46896 4.27851
2 -9.58036 -5.53051 -4.50235
2 0.0302152 -11.0173 4.45206
3 9.40705 -5.47895 -4.61156
2 8.17015 4.69026 6.67855
2 0.102719 9.44236 -6.59537
1 -8.23388 4.73065 6.70037
2 -8.16184 -4.67591 -6.72843
2 0.221741 -9.50837 6.51647
2 8.35086 -4.86009 -7.02439
2 6.812 3.84816 8.99769
2 -0.0768719 7.69999 -8.77396
1 -6.7789 3.94507 8.89013
2 -6.67051 -3.88567 -8.88151
2 -0.125767 -7.87283 8.87519
3 6.63004 -4.07836 -8.89213
2 5.26446 3.10667 11.0464
2 -0.000831375 6.09082 -11.1413
2 -5.39208 3.16675 11.0647
2 -5.5598 -3.19867 -11.1127
3 -0.0277357 -6.40618 11.0005
2 5.38584 -3.17485 -11.0928
2 9.56362 10.0899 -2.11046
1 -4.09269 13.2791 2.20554
2 -13.5784 2.9347 -2.26177
2 -9.53286 -10.0865 2.32038
3 4.01582 -13.3718 -2.25066
3 13.4435 -2.97519 2.22587
2 -0.0269258 4.77316 13.4013
1 4.00134 2.26373 -13.2652
3 9.46375 8.66888 2.18812
3 -2.70782 12.5391 -2.09105
3 -12.2401 3.86342 2.22144
3 -9.58183 -8.61406 -2.10272
3 2.73531 -12.563 1.96381
1 12.1827 -3.9432 -2.17595
3 8.02918 7.86975 4.55428
1 -2.68211 10.7932 -4.36955
2 -10.8123 3.13509 4.30218
3 -8.21998 -7.66405 -4.51283
2 2.83449 -10.8897 4.21215
1 10.8125 -3.14384 -4.43477
2 6.86359 7.18462 6.68625
2 -2.72067 9.33553 -6.57534
1 -9.53979 2.41109 6.77239
3 -6.72454 -6.97186 -6.6014
3 2.87177 -9.29556 6.59943
1 9.54345 -2.29145 -6.60491
2 5.43532 6.36261 8.84969
3 -2.65357 7.72587 -8.78207
1 -8.07199 1.56406 8.90399
3 -5.31488 -6.29864 -8.75517
2 2.79967 -7.8132 8.86078
3 8.00894 -1.76382 -8.73487
3 3.86623 5.55437 10.9148
2 -2.69094 6.18498 -11.0384
2 -6.66923 0.857372 11.0974
1 -4.01108 -5.55982 -11.0311
2 2.59165 -6.25033 11.2582
2 6.79813 -0.948911 -11.0965
2 8.05122 10.948 2.16705
1 -5.38827 12.5089 -2.10546
3 -13.4421 1.59611 2.25779
3 -8.15557 -10.8998 -2.24654
2 5.37312 -12.6813 2.08123
2 13.6581 -1.48381 -2.12328
3 6.81125 10.2381 4.37299
3 -5.2556 10.8917 -4.45453
1 -12.2077 0.739253 4.42055
2 -6.76377 -10.1147 -4.28168
3 5.42332 -10.8666 4.21075
1 12.3447 -0.692131 -4.26983
1 5.43201 9.32829 6.72345
2 -5.34665 9.45986 -6.64579
2 -10.9656 0.16707 6.74337
2 -5.34257 -9.32941 -6.57829
2 5.5375 -9.23537 6.60328
1 11.0292 0.168171 -6.613
2 4.09478 8.68093 8.87085
2 -5.32612 7.826 -8.85941
2 -9.39597 -0.76407 8.84639
1 -3.95859 -8.71179 -9.00875
3 5.26128 -7.75675 8.76077
2 9.40393 0.808971 -8.71088
2 2.70474 7.87136 10.993
2 -5.49143 6.23644 -11.2915
2 -8.147 -1.59301 11.2612
3 -2.78799 -7.93532 -11.0805
2 5.44084 -6.23576 10.9796
2 8.08926 1.75438 -11.0235
3 19.0861 -0.0963524 0.0836973
3 9.49168 16.5154 0.141136
3 -9.4195 16.367 -0.0267196
3 -18.8603 0.0124032 -0.13811
1 -9.61613 -16.2555 0.0445928
2 9.19142 -16.556 0.0295912
1 9.78339 -5.60962 16.328
2 -0.0401563 11.085 15.5768
2 -9.58947 -5.51861 15.4128
3 -0.023422 -11.2424 -15.4389
3 9.57813 5.51047 -15.4047
3 -9.42429 5.49033 -15.4433
3 17.6584 2.48108 -0.112481
1 17.7357 -0.687499 2.23538
2 17.6632 0.950096 -2.12287
2 6.87338 16.5044 0.0588031
2 8.17747 15.8866 2.50145
1 9.4776 15.0476 -2.19453
3 -10.8299 14.1014 -0.00602026
2 -8.28832 15.7709 2.08651
3 -9.40062 14.8794 -2.24897
1 -17.661 -2.37329 -0.0405933
3 -17.8342 -0.81998 2.1369
2 -17.6068 0.715778 -2.25133
2 -6.83141 -16.3755 -0.093563
3 -9.61608 -14.8152 2.36083
2 -8.22744 -15.4527 -2.00618
1 10.9513 -13.8687 -0.0137894
2 9.47006 -14.8313 2.23481
2 7.97308 -15.4436 -2.1485
2 8.28038 -3.15699 15.7982
1 6.8778 -5.33354 15.6188
1 -1.34339 8.73139 15.5521
3 1.34714 -8.71031 -15.411
3 -1.14896 -8.70198 -15.4309
2 6.66545 5.46056 -15.3102
2 16.2868 4.89187 0.104105
1 16.361 -1.51259 4.44694
2 16.2168 1.49828 -4.68563
1 4.09678 16.6349 0.0820815
3 6.82679 14.5596 4.50609
1 9.48371 13.3687 -4.48851
2 -12.1298 11.6595 0.0541329
2 -7.00423 14.9502 4.25047
3 -9.38626 13.3485 -4.28502
2 -16.2488 -4.74336 -0.0679501
2 -16.3889 -1.53827 4.28828
3 -16.0997 1.7291 -4.36593
2 -4.10959 -16.3023 0.146881
2 -9.41996 -13.3278 4.59444
2 -6.94489 -14.6305 -4.20904
3 12.2041 -11.7061 -0.0120547
1 9.36795 -13.075 4.20165
1 6.75981 -15.1136 -4.38876
1 6.57412 -0.758785 15.5341
2 4.00488 -5.31905 15.4431
1 -2.69039 6.40019 15.6505
2 2.76011 -6.57903 -15.8533
2 -2.41516 -6.44577 -15.5172
1 3.88045 5.46998 -15.3543
3 14.8025 7.05305 0.0421431
1 14.7603 -2.2654 6.54204
3 14.9012 2.45747 -6.71272
1 1.23558 16.3865 0.000791473
2 5.33356 14.166 6.71118
3 9.64637 11.7024 -6.65697
2 -13.5316 9.27459 0.13673
1 -5.46363 13.7731 6.66989
1 -9.26634 11.8329 -6.54303
3 -14.88 -6.98008 0.0704056
2 -14.906 -2.29158 6.64538
2 -14.7445 2.19161 -6.57393
2 -1.48501 -16.1828 -0.0282543
1 -9.50816 -11.6229 6.58914
2 -5.32019 -13.9237 -6.70256
2 13.4757 -9.12408 -0.132008
3 9.50233 -11.6295 6.48945
2 5.30046 -14.1375 -6.49506
1 5.40878 1.71087 15.5
3 1.43244 -5.48593 15.344
1 -3.97806 4.01218 15.6326
1 4.10841 -3.92759 -15.659
2 -4.11321 -3.83108 -15.6145
3 1.18422 5.20138 -15.5381
2 13.4638 9.47131 0.118642
1 13.4534 -2.9132 8.64018
2 13.5949 3.36377 -8.65165
2 -1.43536 16.3881 -0.0137432
3 3.90149 13.3024 8.91859
2 9.48117 10.2096 -8.97437
1 -14.8759 7.19882 -0.0441064
3 -4.17628 13.2364 9.03772
2 -9.40194 10.133 -8.78467
3 -13.4147 -9.30143 -0.0448645
1 -13.5335 -3.05226 8.81687
1 -13.5538 3.08834 -8.80488
3 1.23369 -16.4208 -0.0291201
2 -9.37571 -10.1963 9.04027
2 -3.8874 -13.1673 -8.81023
3 14.8507 -6.82798 0.017745
1 9.47997 -9.90142 8.57374
2 4.02141 -13.334 -9.04497
3 4.0352 3.98487 15.3641
1 -1.22812 -5.49264 15.2575
2 -5.38518 1.76269 15.6988
1 5.35558 -1.56405 -15.4811
2 -5.44294 -1.55468 -15.5048
3 -1.67462 5.24591 -15.45
1 12.377 11.9596 -0.106189
2 12.2 -3.99413 10.7815
2 12.1453 3.95537 -11.0333
3 -4.10109 16.4354 0.00464942
3 2.56223 12.6042 11.3264
3 9.31803 8.74604 -10.981
1 -16.3388 4.77565 0.015049
3 -2.79108 12.3885 11.1097
2 -9.63507 8.67964 -11.2217
3 -12.1182 -11.6486 -0.00447709
3 -12.0336 -3.95385 10.9957
2 -12.3008 3.89728 -10.9833
3 4.00549 -16.5234 -0.120774
3 -9.36976 -8.55628 11.0449
2 -2.72863 -12.6273 -11.1731
3 16.3587 -4.54303 -0.0120273
3 9.39001 -8.31398 10.8561
2 2.72414 -12.68 -11.1915
2 2.70077 6.2765 15.6096
2 -3.99662 -5.2953 15.6138
2 -6.68861 -0.504256 15.4458
3 6.59154 0.815199 -15.41
3 -6.72202 0.735683 -15.548
3 -4.2393 5.11233 -15.6494
1 10.8755 14.1849 -0.112818
3 11.2084 -4.71246 12.9048
3 10.74 4.78679 -13.1509
1 -6.56449 16.6777 0.195019
3 1.50722 11.5819 13.6617
3 9.64207 7.195 -13.3566
3 -17.5443 2.37462 -0.0425707
2 -1.26351 11.873 13.2774
1 -9.56452 7.19986 -13.3388
3 -10.9315 -13.9496 0.132194
3 -10.8083 -4.72779 13.1269
1 -10.7098 4.71842 -13.3738
3 6.65512 -16.4939 -0.151126
2 -9.36225 -6.9863 13.1823
3 -1.53542 -11.8808 -13.3467
1 17.4994 -2.26216 -0.00786391
2 9.59314 -7.10918 13.2105
2 1.28034 -11.9597 -13.3901
2 1.20851 8.65691 15.6126
1 -6.87943 -5.49772 15.4442
1 -8.03653 -3.09137 15.4092
2 7.98539 3.035 -15.6541
3 -7.99919 3.16015 -15.4879
3 -6.6782 5.28903 -15.5003
2 16.2657 3.06266 -2.13309
2 5.57382 15.6633 2.17216