2243
 Atoms. Timestep: 100
2 0.0469899 0.00907136 -0.0505692
2 2.66671 -0.0169116 -0.00500983
1 1.41217 2.2781 -0.0161246
1 -1.30124 2.22207 -0.125068
2 -2.74381 -0.0297056 -0.00578051
1 -1.3418 -2.25529 0.132657
3 1.3435 -2.23608 -0.0592042
1 1.28563 -0.932209 1.92623
2 -0.0431776 1.53099 2.11173
2 -1.3124 -0.806319 2.15605
1 0.0981262 -1.50568 -2.08439
2 1.45232 0.720942 -2.25084
2 -1.35212 0.610798 -2.16302
3 5.29291 -0.00975645 0.0254756
2 2.69799 4.55489 -0.095188
3 -2.66121 4.6016 0.0483213
2 -5.4071 0.00915792 -0.0159611
3 -2.68624 -4.61488 -0.0822888
2 2.64285 -4.52475 0.0638712
1 2.5787 -1.49082 4.15006
2 -0.0277119 2.98088 4.33823
1 -2.57363 -1.54774 4.24589
1 0.0817322 -2.9674 -4.25499
2 2.69175 1.56113 -4.36247
2 -2.6527 1.53933 -4.32581
2 3.96201 2.17334 -0.143315
2 3.90647 -0.760986 2.15684
3 3.95976 0.695885 -2.1447
2 -0.0436048 4.53873 0.0277882
2 1.33906 3.72793 2.09617
3 2.67353 3.09055 -2.23592
1 -3.97916 2.2851 -0.0381341
1 -1.29018 3.81312 2.09127
2 -2.5924 3.08461 -2.08105
3 -4.05844 -2.25156 -0.0155
1 -3.96852 -0.853826 2.12477
2 -4.07331 0.808914 -2.18274
1 -0.0268737 -4.53233 0.0393339
2 -2.72445 -3.12271 2.06225
3 -1.21056 -3.7283 -2.02863
2 3.92265 -2.25518 -0.0095754
3 2.5229 -3.05096 2.07028
3 1.36675 -3.88813 -2.18291
1 1.15693 0.726219 4.21138
2 0.0480742 -1.51325 4.2963
2 -1.37526 0.80098 4.3162
3 1.35491 -0.765004 -4.33356
3 -1.19668 -0.824697 -4.2938
1 -0.0033214 1.40362 -4.23486
2 2.63954 1.39618 2.22333
2 0.0541818 3.04229 -2.18152
1 -2.59571 1.51158 2.15884
1 -2.57937 -1.51628 -2.14152
3 -0.121848 -3.05263 2.23796
2 2.63441 -1.56746 -2.20301
2 7.85 0.0237946 -0.0211372
3 3.93882 6.74676 -0.0878913
3 -3.97519 6.83281 0.0304906
2 -7.90414 0.0880301 0.0241932
2 -3.91719 -6.79699 0.0651982
1 3.99956 -6.72896 -0.0376059
3 3.88263 -2.3228 6.35178
1 -0.10554 4.41415 6.39714
2 -4.01764 -2.36626 6.53431
2 -0.0206273 -4.66535 -6.47361
2 3.95772 2.29964 -6.51054
1 -3.88872 2.32451 -6.39114
3 6.54591 2.2896 -0.0791938
2 6.47569 -0.849662 2.10939
3 6.60851 0.766501 -2.13796
1 1.2373 6.79754 -0.0885703
1 2.58283 5.99722 2.01354
3 4.02347 5.30451 -2.16216
2 -5.27908 4.4708 0.0659652
3 -2.66975 6.18749 2.19744
1 -3.95077 5.3341 -2.06768
2 -6.63305 -2.37014 0.00457167
1 -6.5543 -0.759631 2.16035
3 -6.63458 0.815167 -2.06068
2 -1.37381 -6.80969 0.053581
2 -4.02082 -5.35138 2.18998
2 -2.50504 -6.01896 -2.13169
3 5.25723 -4.50491 0.0143176
2 3.95339 -5.34501 2.17752
1 2.60232 -6.04888 -2.24948
2 2.69502 0.0213486 6.39355
2 1.29692 -2.31272 6.43548
2 -1.34632 2.19782 6.4552
2 1.30187 -2.32097 -6.43732
3 -1.2589 -2.34808 -6.41176
2 1.28961 2.19907 -6.45635
2 5.30546 4.58429 -0.0102467
2 5.20486 -1.54813 4.30557
1 5.16015 1.47717 -4.28429
3 -1.4553 6.93061 -0.00289332
1 1.14751 5.31206 4.22291
3 3.95775 3.76146 -4.30966
3 -6.66563 2.32683 -0.00994548
2 -1.3497 5.25825 4.2286
2 -3.91479 3.76417 -4.25666
1 -5.22605 -4.47939 0.109272
3 -5.21751 -1.49039 4.37973
2 -5.31781 1.53827 -4.26062
1 1.30146 -6.80008 0.0465213
1 -4.02942 -3.75704 4.31539
1 -1.1919 -5.29808 -4.28111
2 6.49402 -2.21863 -0.112006
1 3.84763 -3.80724 4.16061
3 1.37371 -5.35121 -4.39291
2 1.39495 2.30095 6.43309
1 -1.37209 -2.30884 6.41357
2 -2.67652 -0.00579455 6.50558
2 2.66397 -0.0201849 -6.46396
2 -2.5967 -0.126554 -6.37068
2 -1.2186 2.29947 -6.35508
2 5.2601 3.01202 -2.20316
2 -0.103253 6.20741 2.16415
2 -5.37504 3.05759 -2.06884
3 -5.26555 -3.07613 2.26024
3 0.0218823 -6.07454 -2.16485
2 5.15342 -3.06349 2.03201
3 0.101676 -0.0385938 6.44934
3 0.0202851 -0.0871017 -6.28268
2 5.23417 1.51012 2.14059
2 1.33898 5.29754 -2.11594
3 -3.95385 3.78902 2.1292
2 -5.27408 -1.50696 -2.12267
3 -1.32899 -5.35343 2.13684
2 3.89217 -3.77693 -2.14965
3 3.94147 0.707422 4.27452
3 1.32217 3.77814 -4.31761
3 -2.59133 3.00384 4.36519
1 -3.79169 -0.691254 -4.22778
2 -1.33144 -3.8281 4.3353
2 2.64452 -3.06851 -4.28444
1 3.9011 3.60222 1.96373
2 -1.31559 5.35445 -2.05545
2 -5.25912 1.58605 2.14702
2 -3.79113 -3.72178 -2.12766
2 1.24485 -5.25606 2.13569
3 5.17129 -1.4587 -2.18624
1 2.65457 2.9493 4.24383
3 -1.24671 3.76845 -4.24969
1 -3.92632 0.717612 4.33659
3 -2.52782 -3.06079 -4.21435
2 1.29117 -3.81918 4.25807
3 3.8231 -0.740496 -4.36648
2 10.6069 -0.0108599 -0.064744
1 5.1689 9.06623 -0.0510554
2 -5.35053 9.14665 -0.0874981
2 -10.6029 0.0267777 0.0703247
2 -5.21614 -9.09832 0.070994
2 5.23142 -9.13605 -0.074648
2 5.31395 -3.03763 8.46254
2 0.00633454 6.18694 8.72624
2 -5.15245 -3.04764 8.69378
1 0.0399651 -6.20155 -8.56736
1 5.34116 3.05371 -8.62415
1 -5.27377 3.12635 -8.57209
1 9.0759 2.24307 -0.0676245
2 9.24243 -0.726781 2.14574
2 9.16746 0.687865 -2.22001
3 2.61109 9.04467 -0.103598
2 3.88248 8.31145 2.06765
2 5.27212 7.59078 -2.02289
2 -6.64211 6.7997 0.00388055
1 -3.98207 8.3379 2.11043
1 -5.3223 7.55555 -2.14725
2 -9.244 -2.31069 0.11603
1 -9.20155 -0.684199 2.12468
1 -9.12634 0.778179 -2.0653
2 -2.59395 -9.12037 0.0472127
3 -5.20711 -7.6441 2.22105
2 -3.95169 -8.44137 -2.24863
3 6.53496 -6.89026 -0.00940419
3 5.19754 -7.65963 2.15554
1 4.01158 -8.34482 -2.11268
1 3.97771 -0.874791 8.54333
2 2.62427 -3.15502 8.62817
2 -1.22695 3.75163 8.70427
3 1.26021 -3.75572 -8.51346
3 -1.33478 -3.79981 -8.60389
1 2.63733 3.02911 -8.55795
3 7.93453 4.56463 0.0646902
3 7.87985 -1.55233 4.23536
2 7.82772 1.48367 -4.30163
2 -0.0666436 9.15474 0.0882154
1 2.51362 7.56161 4.34281
1 5.2389 6.09327 -4.26568
3 -7.82124 4.52325 0.0494208
2 -2.68739 7.63968 4.3033
2 -5.21582 6.08007 -4.32641
3 -7.76943 -4.6174 0.0397378
1 -7.80018 -1.51281 4.24884
3 -7.84048 1.60589 -4.22274
2 0.0673928 -9.02434 -0.0200378
2 -5.30399 -6.3024 4.33119
1 -2.56685 -7.62397 -4.34658
2 7.75093 -4.60082 -0.0826418
1 5.26773 -6.09099 4.19335
2 2.64187 -7.59746 -4.28401
1 2.71072 1.46971 8.59396
2 -0.0547688 -3.09271 8.61284
1 -2.65778 1.53937 8.73704
1 2.60117 -1.56624 -8.49868
2 -2.59363 -1.57805 -8.63321
2 0.0059686 3.0248 -8.557
3 6.61475 6.74589 0.0624885
2 6.52843 -2.27137 6.38028
1 6.59622 2.29253 -6.42179
3 -2.63346 9.04882 -0.00113898
2 1.35015 6.88564 6.45275
2 5.32178 4.61111 -6.37586
2 -9.15113 2.2683 0.113976
1 -1.31262 6.88037 6.39986
1 -5.28991 4.59723 -6.38738
3 -6.46631 -6.83175 0.042176
2 -6.72046 -2.22651 6.42915
2 -6.50392 2.25617 -6.3585
2 2.63473 -8.96018 -0.00881281
1 -5.28175 -4.6241 6.49235
3 -1.22738 -6.89966 -6.55322
2 9.19047 -2.25725 -0.0261389
1 5.23847 -4.53218 6.39706
3 1.26655 -6.89099 -6.41122
1 1.30426 3.85873 8.63268
2 -2.62611 -3.02069 8.66578
3 -3.88879 -0.729302 8.57103
3 3.95806 0.750118 -8.57692
2 -3.88714 0.709936 -8.69242
3 -2.61928 3.00809 -8.60908
3 7.90435 2.91549 -2.15436
1 1.29626 8.37451 2.14073
2 -6.59508 5.32077 -2.09753
3 -7.7763 -3.0829 2.1875
2 -1.29808 -8.34508 -2.14853
2 6.53156 -5.34574 2.08182
2 1.28274 -0.747858 8.69075
1 -0.0418227 -1.56282 -8.49518
1 6.60461 3.80785 -4.32461
2 -0.126859 7.77895 4.27019
2 -6.63662 3.87412 -4.24011
2 -6.58603 -3.8011 4.34006
2 0.0405932 -7.52801 -4.30185
3 6.47325 -3.81047 4.1792
2 -1.36904 -0.74528 8.65084
1 -1.32713 0.781676 -8.45958
1 7.77084 1.45713 2.16449
2 2.58306 7.50968 -2.09687
1 -5.22584 5.9447 2.17502
2 -7.87055 -1.4431 -2.19985
2 -2.66734 -7.63339 2.26676
1 5.27655 -6.00434 -2.20924
2 6.6208 0.715953 4.36084
1 2.55131 5.93299 -4.14308
3 -3.92752 5.30707 4.2902
1 -6.46179 -0.683866 -4.27995
1 -2.75656 -6.14378 4.29681
2 3.93215 -5.33133 -4.41198
2 5.26717 0.00506793 6.40309
2 2.65426 4.65071 -6.27042
2 -2.63936 4.62607 6.37923
1 -5.20931 -0.0415675 -6.43348
2 -2.65585 -4.64875 6.44577
1 2.65435 -4.61061 -6.46666
1 6.61948 5.19532 -2.05999
3 -1.38293 8.44134 2.09185
3 -7.98853 3.02535 -2.03573
2 -6.56275 -5.39795 2.09356
3 1.31625 -8.36064 -2.16965
1 7.79269 -3.09834 2.05257
1 -0.0298297 1.45797 8.54222
3 1.30789 0.750012 -8.562
3 6.56795 3.74685 2.12096
2 -0.0794609 7.68036 -2.11347
2 -6.62298 3.8092 2.1717
2 -6.42677 -3.89236 -2.12594
2 -0.0173714 -7.60073 2.17943
2 6.48283 -3.77384 -2.23397
2 5.29724 2.98155 4.34398
3 -0.0208234 5.94715 -4.1547
1 -5.20055 3.05721 4.19912
2 -5.12089 -2.99572 -4.26854
1 0.00134438 -6.08299 4.26475
3 5.16147 -3.00967 -4.3413
3 4.09129 2.27981 6.4806
2 0.0480256 4.64623 -6.36647
2 -4.06847 2.3545 6.38473
1 -3.81475 -2.35346 -6.40704
1 -0.0404921 -4.56658 6.44284
3 3.96529 -2.26164 -6.41042
2 5.27525 6.07305 2.06973
3 -2.64903 7.6045 -2.10761
2 -7.86688 1.55809 2.19496
1 -5.09912 -6.04022 -2.24135
1 2.66343 -7.51462 2.31186
3 7.86913 -1.47522 -2.14351
1 3.92985 5.25809 4.15699
1 -2.56352 5.9573 -4.27099
3 -6.55152 0.887792 4.3196
2 -3.90265 -5.36958 -4.33953
3 2.59306 -6.06303 4.31282
1 6.46391 -0.778842 -4.2495
1 2.6313 4.51467 6.43463
2 -2.59519 4.57641 -6.45394
2 -5.29328 0.0367773 6.47445
2 -2.57629 -4.5673 -6.39726
3 2.60527 -4.53434 6.3693
3 5.21734 -0.015094 -6.39059
1 13.2609 0.143541 -0.111207
1 6.68854 11.4562 0.0137718
2 -6.82494 11.6553 -0.108884
1 -13.3131 0.0250256 -0.0297288
3 -6.56786 -11.4808 -0.0482761
1 6.72694 -11.4253 -0.00678241
2 6.60229 -3.82284 10.7254
3 0.0421739 7.6514 10.8085
1 -6.58627 -3.70971 10.8242
1 -0.0937424 -7.70727 -10.8179
3 6.59065 3.80311 -10.8237
2 -6.52137 3.86334 -10.6908
2 12.0343 2.30557 0.00200313
2 11.9251 -0.654561 2.13536
3 11.7856 0.735234 -2.20922
2 3.85699 11.3714 -0.0347935
1 5.21288 10.6448 2.15761
2 6.50056 9.88007 -2.16684
1 -8.03039 9.20313 -0.0345276
1 -5.35321 10.6635 2.14429
1 -6.7714 9.987 -2.27246
1 -12.0145 -2.29144 0.0612769
2 -11.9881 -0.724858 2.24511
2 -11.8423 0.755375 -2.13487
1 -4.02251 -11.3708 -0.0922917
3 -6.5116 -9.91287 2.21082
2 -5.38739 -10.6774 -2.24988
2 7.88354 -9.11643 -0.0513407
2 6.58328 -9.859 2.15872
3 5.27184 -10.7154 -2.23923
1 5.2217 -1.5442 10.7333
2 3.87724 -3.78142 10.8165
3 -1.19224 5.24616 10.8316
1 1.34784 -5.32265 -10.746
3 -1.35045 -5.3188 -10.6839
2 3.93497 3.83169 -10.8294
2 10.5234 4.39847 -0.0108278
1 10.482 -1.53132 4.27466
2 10.4444 1.43812 -4.30636
2 1.23409 11.3654 0.0693755
1 3.92139 9.84956 4.31885
2 6.62099 8.43354 -4.34066
3 -9.29571 6.85111 0.0755088
2 -3.96203 9.95772 4.33559
1 -6.67782 8.3471 -4.35293
2 -10.4634 -4.72563 0.061556
1 -10.6005 -1.46183 4.37328
2 -10.3902 1.54559 -4.13342
1 -1.32083 -11.3838 -0.111293
3 -6.57672 -8.46789 4.36874
1 -3.93981 -9.98241 -4.37614
1 9.20931 -6.79159 0.0377987
3 6.5029 -8.37147 4.26413
2 3.8727 -9.97256 -4.32263
3 4.04495 0.718833 10.7321
2 1.31611 -3.71712 10.845
3 -2.58446 3.11878 10.7707
1 2.55494 -3.03079 -10.6771
3 -2.66171 -3.07346 -10.7879
2 1.25183 3.73288 -10.7767
2 9.24128 6.8407 -0.0201518
3 9.2104 -2.34387 6.40587
3 9.20295 2.29834 -6.42942
1 -1.35432 11.393 -0.00435911
2 2.60478 9.15559 6.52482
2 6.65313 6.77624 -6.46288
2 -10.5286 4.53837 0.1521
1 -2.6396 9.28707 6.47339
2 -6.64041 6.80146 -6.48208
1 -9.13054 -6.87092 0.0527862
3 -9.21241 -2.29657 6.53388
3 -9.16409 2.35979 -6.31026
1 1.33644 -11.4074 -0.0691629
2 -6.69141 -6.91333 6.58951
3 -2.70623 -9.18343 -6.54847
2 10.6433 -4.58819 -0.0508574
1 6.52652 -6.90494 6.38917
2 2.5695 -9.17535 -6.51095
1 2.58681 2.977 10.831
1 -1.35349 -3.73253 10.8018
2 -3.81917 0.847853 10.8447
2 3.7783 -0.82694 -10.5722
2 -3.96969 -0.749728 -10.8513
1 -1.35584 3.76902 -10.8526
2 7.87149 9.11515 -0.0513631
3 7.98388 -3.05249 8.54857
3 7.86806 3.11148 -8.57425
1 -3.99722 11.4528 -0.0850641
3 1.27705 8.44142 8.61617
2 6.63559 5.41159 -8.63749
2 -12.0447 2.38248 0.0268283
2 -1.27859 8.43037 8.56817
3 -6.60708 5.37771 -8.55383
1 -7.81997 -9.16468 -0.0369592
3 -7.97707 -3.06117 8.61196
2 -7.9647 3.14587 -8.57344
1 3.96112 -11.4506 -0.0111766
2 -6.68229 -5.30232 8.6188
2 -1.38339 -8.47833 -8.63838
2 11.9278 -2.22961 -0.0957784
1 6.63598 -5.2473 8.58207
2 1.29631 -8.4526 -8.79098
2 1.33298 5.31174 10.732
2 -3.95567 -3.85518 10.8227
1 -5.07518 -1.42875 10.8033
1 5.18651 1.53272 -10.7815
3 -5.26827 1.57055 -10.8383
2 -3.98566 3.79103 -10.7704
2 10.5495 2.96912 -2.17299
1 2.49275 10.6755 2.14593
3 -7.99438 7.56576 -2.17677
1 -10.4891 -3.00031 2.22091
2 -2.61888 -10.683 -2.17238
3 7.91524 -7.67905 2.15286
3 2.53177 -1.51125 10.7206
3 -0.131277 -3.05198 -10.739
3 9.1757 3.82329 -4.24299
2 1.24474 9.99916 4.28762
2 -7.95385 6.10909 -4.25756
1 -9.21531 -3.82997 4.45149
2 -1.35098 -9.8553 -4.36702
3 7.78426 -6.00041 4.19903
3 0.00566666 -1.48975 10.8346
1 -1.44843 -0.772859 -10.7699
3 7.90277 4.49249 -6.47617
3 0.0184549 9.25834 6.48983
2 -7.97605 4.60652 -6.37366
3 -7.83196 -4.58572 6.49264
2 -0.030445 -9.17473 -6.56023
2 7.90459 -4.59933 6.27776
3 -2.59865 -1.47992 10.8206
2 -2.70717 1.46409 -10.8909
3 10.5008 1.57991 2.15108
2 3.83458 9.85596 -2.15269
1 -6.66791 8.28428 2.11983
2 -10.4649 -1.44666 -2.15388
3 -3.93722 -10.058 2.17239
3 6.65245 -8.2428 -2.14992
2 9.17271 0.736204 4.25238
2 3.8983 8.37117 -4.30841
1 -5.19126 7.47818 4.34931
1 -9.08703 -0.798704 -4.30937
3 -3.89475 -8.45558 4.35466
3 5.20177 -7.60071 -4.36696
1 8.0199 -0.0775726 6.47942
2 3.92984 6.90729 -6.50411
3 -3.9606 6.91337 6.44472
1 -7.79815 0.113305 -6.41663
3 -4.00482 -6.85326 6.47772
2 3.88984 -6.85118 -6.48271
2 6.6941 -0.783811 8.61992
2 4.09858 5.3888 -8.56458
2 -2.56627 6.04799 8.64572
2 -6.4902 0.786373 -8.6869
3 -3.90786 -5.27621 8.64229
3 2.60287 -6.16111 -8.60864
2 9.28065 5.19015 -2.10672
3 -0.0221715 10.7163 2.24376
2 -9.24962 5.21319 -2.02529
1 -9.15106 -5.31276 2.23356
2 0.0106468 -10.6451 -2.15542
2 9.18423 -5.33391 2.17852
3 1.37429 0.723029 10.8292
3 1.18671 -0.874068 -10.7419
2 7.94127 6.01436 -4.26249
3 -1.44375 9.99483 4.37791
3 -9.23715 3.84691 -4.16966
2 -8.00709 -6.22761 4.4283
2 1.27615 -9.95133 -4.29435
2 9.14746 -3.76767 4.24907
3 -1.23417 0.74809 10.8336
3 -0.0579161 1.46991 -10.6862
2 9.10492 3.72835 2.1054
2 1.1802 9.92161 -2.12064
1 -7.9282 5.99629 2.23141
1 -9.07183 -3.71142 -2.07805
2 -1.36735 -9.87335 2.17703
3 7.87083 -6.08407 -2.17211
2 7.90063 3.02206 4.31953
1 1.22706 8.30699 -4.21371
3 -6.57919 5.32235 4.31333
1 -7.71904 -3.11471 -4.31489
2 -1.29836 -8.35151 4.43376
2 6.54967 -5.26976 -4.30711
3 6.64915 2.2895 6.50177
3 1.3721 6.88585 -6.39073
1 -5.15494 4.64263 6.38483
2 -6.53735 -2.26979 -6.46728
3 -1.3473 -6.86607 6.46081
3 5.25238 -4.59309 -6.5278
2 5.39609 1.53595 8.61298
2 1.37221 5.48581 -8.56762
2 -3.89177 3.83008 8.72992
3 -5.24017 -1.45661 -8.61233
2 -1.39597 -5.39729 8.59537
3 3.9903 -3.78464 -8.58183
1 7.93302 7.62294 -2.17667
2 -2.62264 10.6139 2.12546
3 -10.5452 3.01541 -1.94407
1 -7.8068 -7.65528 2.25896
2 2.65809 -10.7078 -2.12068
2 10.5568 -2.98191 2.17734
2 0.02186 2.9211 10.8809
1 2.51874 1.46646 -10.6728
3 7.92873 6.06567 2.06287
2 -1.47085 9.92036 -2.18378
3 -9.19491 3.84897 2.1967
2 -7.83683 -6.11209 -2.05105
2 1.34865 -9.83643 2.16428
3 9.06764 -3.79352 -2.12276
1 6.59923 5.32294 4.2272
2 -1.33389 8.23131 -4.29927
3 -7.8118 3.08788 4.28135
2 -6.56001 -5.4307 -4.43014
3 1.25817 -8.40036 4.2918
1 7.80998 -2.95054 -4.20875
2 5.25326 4.55617 6.43006
3 -1.31141 6.87745 -6.47769
2 -6.6869 2.33034 6.47955
2 -5.23342 -4.63303 -6.54723
1 1.30408 -6.85281 6.46729
2 6.54533 -2.36381 -6.31598
2 3.88382 3.84817 8.61048
1 -1.35514 5.27378 -8.53494
1 -5.24738 1.58397 8.59036
1 -3.9007 -3.7887 -8.57409
1 1.30063 -5.30733 8.61465
2 5.11497 -1.50688 -8.53452
2 6.56098 8.3493 2.12552
1 -4.07367 9.91532 -2.15106
2 -10.5479 1.5645 2.24309
1 -6.50405 -8.25498 -2.18033
2 3.9497 -9.84713 2.20615
3 10.5136 -1.5831 -2.13185
2 5.20482 7.50124 4.28437
1 -3.9193 8.3011 -4.24946
1 -9.13813 0.812224 4.3381
3 -5.2817 -7.67241 -4.41203
2 3.88526 -8.33765 4.35207
3 9.18346 -0.760666 -4.28962
3 3.97086 6.87296 6.44187
1 -3.94635 6.87807 -6.45531
2 -8.00725 -0.0221103 6.39239
1 -3.93915 -6.91183 -6.49675
3 3.94133 -6.73139 6.43177
1 7.87054 -0.145428 -6.39763
3 2.54292 6.17053 8.56013
3 -4.06849 5.34099 -8.60792
1 -6.59267 -0.686891 8.60004
2 -2.57576 -6.20651 -8.61449
3 4.00722 -5.33955 8.74937
2 6.52085 0.780761 -8.44877
2 15.994 0.0497017 -0.0624492
3 8.09875 13.7891 0.0616886
3 -8.01549 14.018 -0.0082441
1 -15.9852 0.0581055 -0.00756732
2 -8.04365 -13.8639 0.0837038
3 8.11782 -13.8365 0.0807303
1 7.88337 -4.53942 13.0386
1 0.0932464 9.21305 13.0451
3 -7.8993 -4.56953 13.1781
3 -0.023081 -9.21417 -13.0559
2 7.9646 4.61161 -12.8475
2 -7.93215 4.6283 -13.0329
3 14.6165 2.362 0.023564
2 14.6513 -0.736402 2.19428
3 14.6898 0.717026 -2.2754
3 5.26761 13.7712 0.120954
2 6.61847 13.1047 2.22282
1 7.93961 12.2979 -2.14767
1 -9.37 11.6163 -0.03308
3 -6.69764 13.077 2.05346
3 -8.19496 12.3528 -2.15202
3 -14.6023 -2.2875 0.0301381
2 -14.6072 -0.693963 2.08123
2 -14.5355 0.724599 -2.11636
2 -5.35576 -13.7627 0.0243131
2 -7.80524 -12.1859 2.16263
2 -6.81744 -13.0546 -2.03758
3 9.44479 -11.4866 -0.00834186
1 8.02593 -12.1889 2.17522
2 6.81705 -13.0438 -2.07408
2 6.54047 -2.32676 13.0202
2 5.2053 -4.71299 13.0857
2 -1.32475 6.91983 13.0148
3 1.27702 -6.90543 -12.9299
2 -1.31031 -6.82667 -12.7526
2 5.22768 4.6502 -13.0053
2 13.3648 4.56003 -0.114574
2 13.2783 -1.5598 4.36336
2 13.2567 1.36235 -4.31546
3 2.72531 13.7476 -0.0177794
2 5.32168 12.2666 4.36456
2 7.93896 10.7795 -4.3675
2 -10.5963 9.12123 -0.0012682
1 -5.34396 12.2443 4.32038
2 -8.11495 10.8093 -4.36504
2 -13.1758 -4.57392 0.150139
2 -13.448 -1.52178 4.44821
2 -13.2401 1.61066 -4.27446
2 -2.67727 -13.783 -0.0774326
3 -7.92005 -10.6855 4.31821
2 -5.3934 -12.3349 -4.4365
1 10.5367 -9.16535 0.0342835
3 7.95183 -10.6692 4.28773
2 5.32302 -12.3174 -4.38307
1 5.29038 -0.170662 12.9332
3 2.59162 -4.65191 12.9704
1 -2.65873 4.60934 13.0856
2 2.60594 -4.5869 -12.8375
1 -2.59955 -4.56632 -12.9751
2 2.60969 4.60714 -13.0625
2 11.9487 6.81726 -0.0412692
1 11.9587 -2.34462 6.47281
2 11.8207 2.38745 -6.47095
1 0.0419852 13.7427 0.0210329
2 3.85994 11.4224 6.37981
2 7.92156 9.21919 -6.4843
2 -11.9766 6.77223 0.0758464
3 -3.92334 11.5098 6.48528
1 -8.17034 9.23016 -6.50053
3 -11.8925 -6.93257 0.160101
1 -11.9281 -2.35415 6.52626
1 -11.8914 2.23348 -6.36058
1 -0.0177244 -13.865 -0.171178
3 -7.95223 -9.20379 6.4647
3 -4.00239 -11.4433 -6.55314
2 11.8408 -6.89472 0.0469754
2 7.84426 -9.12515 6.39282
2 3.90799 -11.5729 -6.49661
1 4.03894 2.19344 12.9381
1 -0.0313077 -4.5113 13.0234
1 -3.89543 2.25799 13.0496
1 3.96801 -2.33211 -12.922
3 -3.84882 -2.22698 -12.944
1 0.059607 4.54356 -12.9907
2 10.6048 9.17205 -0.138236
3 10.5486 -2.99735 8.61207
1 10.5626 3.08924 -8.56803
1 -2.75316 13.8251 -0.121866
2 2.58505 10.6828 8.5803
1 7.97958 7.7498 -8.64976
3 -13.2594 4.5486 0.0331946
3 -2.69987 10.8126 8.64
2 -7.98195 7.64821 -8.64161
2 -10.6979 -9.21249 -0.0262782
2 -10.5326 -2.991 8.61999
1 -10.4674 3.04623 -8.62666
1 2.65674 -13.8476 -0.0891904
2 -8.134 -7.69066 8.71805
1 -2.62234 -10.6223 -8.65503
1 13.2213 -4.5263 -0.081372
2 7.91556 -7.68968 8.71574
3 2.67301 -10.6954 -8.67127
3 2.55128 4.47578 12.9345
2 -2.73995 -4.58161 13.0762
3 -5.28576 0.0704693 12.8805
1 5.29985 0.00796136 -13.0323
1 -5.20425 0.0787549 -12.997
1 -2.71126 4.53019 -12.9938
2 9.24087 11.4477 -0.0299051
2 9.22992 -3.76366 10.7714
3 9.18087 3.75198 -10.7519
3 -5.35846 13.826 -0.0648682
2 1.34756 9.90142 10.7977
3 7.91385 6.16059 -10.8134
3 -14.6268 2.37453 0.0652333
1 -1.3349 9.94985 10.6354
3 -7.96056 6.18778 -10.8648
2 -9.29125 -11.5941 -0.0501396
2 -9.19653 -3.78405 10.8814
2 -9.35084 3.94431 -10.8215
1 5.37883 -13.8105 -0.016195
1 -8.04171 -5.98389 10.891
3 -1.37344 -10.0632 -10.913
2 14.6317 -2.23741 -0.0597202
3 7.90927 -6.06815 10.7833
3 1.29258 -9.94328 -10.8847
1 1.24041 6.79755 12.9915
2 -5.34667 -4.66386 13.041
2 -6.63218 -2.2521 13.0552
2 6.74342 2.26193 -12.9992
1 -6.50355 2.43553 -12.9983
3 -5.29345 4.686 -12.9644
1 13.203 3.05229 -2.21007
2 3.86102 13.1218 2.16665
1 -9.41013 9.98747 -2.18601
2 -13.318 -3.04344 2.18255
2 -3.96296 -12.9574 -2.23738
2 9.27962 -10.0129 2.14748
3 3.99458 -2.45722 13.0038
3 0.0079108 -4.57127 -12.8807
1 11.8044 3.73721 -4.26815
3 2.59614 12.3233 4.27883
2 -9.3937 8.43869 -4.23509
1 -11.9296 -3.84239 4.35918
2 -2.68868 -12.2155 -4.47691
3 9.13036 -8.42215 4.27346
2 1.39895 -2.27381 13.0098
2 -1.34359 -2.3682 -13.0119
1 10.4643 4.57362 -6.33726
3 1.27161 11.4776 6.52419
2 -9.41149 6.91493 -6.42696
2 -10.5406 -4.5789 6.46119
3 -1.31836 -11.4265 -6.5084
1 9.19657 -6.7821 6.34282
3 -1.30381 -2.23975 13.0695
2 -2.74707 0.0834575 -13.0974
2 9.29617 5.32848 -8.61748
2 -0.119266 10.7068 8.56378
3 -9.24695 5.45895 -8.62648
3 -9.24393 -5.31293 8.65168
1 -0.0188613 -10.6892 -8.75187
1 9.24757 -5.30902 8.66196
1 -3.92176 -2.3744 13.0168
3 -3.96505 2.38077 -13.0026
3 13.3436 1.48301 2.12247
1 5.20231 12.1764 -2.06175
2 -8.0591 10.7347 2.16454
3 -13.2417 -1.54403 -2.23218
2 -5.23267 -12.2101 2.04843
1 7.95176 -10.6296 -2.10468
2 11.9405 0.78933 4.2464
3 5.27858 10.6224 -4.37953
2 -6.55585 9.95061 4.3036
2 -11.9222 -0.7385 -4.29584
2 -5.20535 -10.644 4.26105
2 6.52035 -9.84312 -4.34266
2 10.5387 -0.0145618 6.46347
2 5.2211 9.17487 -6.51251
2 -5.32381 9.21914 6.50268
1 -10.4627 -0.0501355 -6.41087
3 -5.28299 -9.10113 6.39616
2 5.20577 -9.21541 -6.46407
3 9.3242 -0.923089 8.6908
2 5.42717 7.69921 -8.80127
2 -3.83939 8.42826 8.61263
2 -9.24843 0.827647 -8.55815
2 -5.23551 -7.56575 8.55114
2 3.87801 -8.41245 -8.67507
3 7.97526 -1.5936 10.9289
1 5.36487 6.11941 -10.8786
1 -2.58026 7.59048 10.7596
1 -7.99662 1.66468 -10.7105
1 -5.22299 -6.06481 10.7296
2 2.56575 -7.59839 -10.853
3 11.8611 5.2779 -2.13717
2 1.18965 13.1014 2.08507
1 -10.6939 7.69497 -2.10309
2 -11.8931 -5.42738 2.22818
2 -1.31259 -13.0567 -2.19611
2 10.6043 -7.65914 2.22029
1 2.67468 -0.116415 12.9596
2 1.20958 -2.30398 -12.9803
3 10.5279 6.12076 -4.18412
1 0.0201846 12.3468 4.28432
1 -10.6607 6.1027 -4.24299
3 -10.6248 -6.16723 4.44369
1 0.0159982 -12.1738 -4.23256
3 10.5265 -6.0207 4.26557
1 0.0242163 -0.0636149 13.0699
2 -0.101158 -0.00427109 -12.8814
3 9.27839 6.77519 -6.48728
2 -1.34627 11.5975 6.45978
2 -10.5563 4.5739 -6.33804
1 -9.31853 -6.94872 6.54744
1 1.28633 -11.4038 -6.4475
2 10.6306 -4.52826 6.44077
3 -2.62257 -0.0263919 13.0096
3 -1.35749 2.23419 -12.9382
1 11.9832 3.8324 2.11331
2 2.53602 12.3037 -2.26577
3 -9.2433 8.35574 2.21367
2 -11.7075 -3.83133 -2.01875
2 -2.566 -12.2826 2.13713
2 9.2438 -8.30953 -2.10663
2 10.6261 3.15139 4.29031
1 2.57012 10.6605 -4.27299
2 -7.79047 7.59824 4.32405
2 -10.4288 -2.93349 -4.31247
3 -2.54764 -10.7625 4.30534
2 7.92124 -7.6215 -4.34005
3 9.32778 2.30719 6.4174
1 2.69987 9.08043 -6.40755
3 -6.50979 6.92787 6.46194
2 -9.25548 -2.24565 -6.46085
2 -2.68474 -9.10433 6.53562
1 6.53506 -6.80572 -6.40184
3 7.98299 1.39582 8.55592
1 2.68813 7.66609 -8.66682
1 -5.13782 6.13618 8.64441
2 -7.8551 -1.55643 -8.68379
1 -2.58162 -7.65966 8.73246
1 5.26735 -6.04537 -8.59355
1 6.69918 0.761728 10.7927
1 2.64121 6.20941 -10.8291
2 -3.83708 5.28127 10.8632
1 -6.62516 -0.691105 -10.7782
3 -2.58562 -6.08628 10.7684
3 3.93694 -5.41 -10.7829
3 10.5969 7.60531 -2.17377
2 -1.34296 13.0467 2.22481
2 -11.9434 5.26471 -1.95584
2 -10.5224 -7.72374 2.28892
2 1.34718 -13.1007 -2.22614
1 11.9009 -5.26517 2.13647
1 1.34994 2.27066 13.1867
1 2.5287 -0.0666299 -12.9657
2 9.2553 8.35393 -4.331
2 -2.65366 12.2749 4.37411
2 -11.8107 3.83039 -4.12197
3 -9.13648 -8.57139 4.38054
1 2.69776 -12.4309 -4.3271
2 11.9255 -3.95457 4.28854
1 -1.32335 2.23337 13.1079
2 1.25548 2.14171 -12.8515
2 10.6202 6.04967 2.07885
2 -0.132224 12.2692 -2.27906
3 -10.5608 6.10877 2.245
3 -10.537 -6.14268 -2.0579
2 0.0374515 -12.2169 2.10758
2 10.5424 -5.96477 -2.23426
1 9.23811 5.2907 4.21539
1 -0.0998167 10.6913 -4.30309
2 -9.17569 5.30486 4.36722
2 -9.17612 -5.30923 -4.13939
2 0.0621022 -10.6695 4.23167
2 9.15194 -5.26956 -4.324
2 7.86697 4.5875 6.52652
1 0.0390229 9.12451 -6.44628
1 -7.83254 4.65642 6.55703
2 -7.88501 -4.55683 -6.4973
2 0.027059 -9.19422 6.48614
3 7.85078 -4.4964 -6.48228
2 6.65332 3.82318 8.63493
1 0.0622633 7.67348 -8.58051
2 -6.47904 3.83882 8.65117
1 -6.55364 -3.79145 -8.74506
2 -0.0373504 -7.65859 8.57529
3 6.6046 -3.81631 -8.49036
3 5.27646 3.05235 10.7042
1 -0.0310931 6.10309 -10.7668
3 -5.23582 3.03108 10.8509
3 -5.1191 -3.00337 -10.7462
2 -0.0383367 -6.19045 10.7681
2 5.24715 -3.22014 -10.6506
3 9.2371 9.94938 -2.14464
1 -3.9819 12.912 2.06594
1 -13.2771 3.11042 -2.20644
1 -9.18606 -9.94616 2.18535
2 4.1327 -13.1327 -2.20912
3 13.2158 -2.89724 2.19269
2 -0.0375921 4.5035 13.1024
2 3.84661 2.22796 -12.9754
2 9.14685 8.34244 2.2955
3 -2.71182 12.1852 -2.268
1 -11.9119 3.84285 2.23088
1 -9.17492 -8.3678 -2.17186
1 2.68884 -12.2489 2.23715
3 11.8844 -3.72438 -2.20007
3 7.864 7.63568 4.35122
2 -2.73285 10.6829 -4.35467
1 -10.5156 3.05541 4.38371
1 -7.83984 -7.71046 -4.42018
1 2.64597 -10.6762 4.43104
2 10.4741 -2.9979 -4.29024
3 6.57479 6.78808 6.39128
1 -2.67522 9.24058 -6.43543
1 -9.24503 2.27558 6.56485
3 -6.60849 -6.85294 -6.54326
2 2.62491 -9.15588 6.45093
3 9.29697 -2.30274 -6.33895
1 5.26749 6.10861 8.64696
1 -2.66415 7.5966 -8.66106
2 -7.93763 1.60412 8.72405
3 -5.21432 -6.10475 -8.71774
1 2.60601 -7.67654 8.5556
1 7.82079 -1.51431 -8.49042
1 3.91262 5.29073 10.7704
2 -2.73145 6.07387 -10.8196
2 -6.5712 0.742253 10.8243
2 -3.91661 -5.26737 -10.713
2 2.57802 -6.13275 10.7897
2 6.42574 -0.771649 -10.7931
2 7.88392 10.7065 2.17713
2 -5.37849 12.3414 -2.19522
3 -13.1571 1.60133 2.27256
2 -7.94679 -10.6816 -2.29442
1 5.31776 -12.1478 2.17324
3 13.3869 -1.51112 -2.1862
1 6.60387 9.85214 4.26445
2 -5.35934 10.725 -4.37324
2 -12.0198 0.7813 4.37563
1 -6.64051 -10.0147 -4.37411
3 5.29395 -10.6577 4.37548
1 11.7238 -0.790096 -4.38554
1 5.24967 9.05405 6.46628
1 -5.41713 9.1815 -6.51361
1 -10.6376 -0.0556861 6.55261
3 -5.19811 -9.17148 -6.58268
3 5.25054 -9.22553 6.40823
2 10.4736 0.100365 -6.46206
3 3.90886 8.35725 8.62459
1 -5.29462 7.61916 -8.78105
1 -9.29522 -0.734342 8.64122
3 -4.0175 -8.40935 -8.6252
1 5.38109 -7.67193 8.58175
1 9.12092 0.882427 -8.57765
1 2.61474 7.62898 10.6925
3 -5.29659 6.09207 -10.7469
2 -7.84369 -1.57747 10.8031
1 -2.735 -7.74877 -10.7193
2 5.30777 -6.1113 10.7781
2 7.8535 1.55435 -10.8081
3 18.6429 0.141686 -0.0428297
3 9.31737 16.1556 -0.180875
2 -9.1989 16.3042 0.155079
2 -18.4797 0.0545465 -0.00826018
3 -9.3375 -16.0991 -0.0303116
2 9.29686 -16.0838 -0.0888283
2 9.11584 -5.41985 15.1456
3 0.161334 10.5661 15.177
2 -9.39855 -5.15451 15.1934
2 -0.0574989 -10.7793 -15.1299
1 9.18618 5.40984 -15.1001
2 -9.3148 5.35538 -15.0944
3 17.5315 2.40027 -0.151361
2 17.4822 -0.701069 2.18325
2 17.4814 0.848775 -2.15553
2 6.63195 16.0302 -0.0914233
2 8.00114 15.5674 2.02942
3 9.31414 14.6972 -2.13756
2 -10.814 13.8483 -0.158279
2 -7.906 15.5306 2.33951
2 -9.39996 14.751 -2.21512
3 -17.281 -2.35982 -0.00814733
1 -17.3023 -0.773041 2.09696
1 -17.6575 1.09992 -2.09088
1 -6.69122 -16.1636 -0.0888613
2 -9.44464 -14.6622 2.21346
1 -8.10345 -15.6455 -2.17964
1 10.9424 -13.9907 0.0376104
1 9.55798 -14.8698 2.27406
3 8.27233 -15.2568 -2.23784
2 7.94329 -3.11149 15.3965
2 6.60301 -5.59681 15.744
3 -1.19723 8.3761 15.1473
2 1.33712 -8.35241 -15.1939
1 -1.21697 -8.7166 -15.4232
2 6.58107 5.28719 -15.2166
2 16.0095 4.67097 -0.0669728
2 15.9903 -1.61813 4.48603
2 16.006 1.30514 -4.46799
2 3.94145 16.0038 -0.000482309
1 6.52228 14.6802 4.40126
3 9.29305 13.1443 -4.35243
3 -11.9393 11.5134 -0.0679596
1 -6.38976 14.5998 4.37183
3 -9.50352 13.078 -4.41009
2 -15.7512 -4.60587 -0.0829947
1 -16.0602 -1.65501 4.38654
3 -16.0095 1.52277 -4.22254
2 -3.99676 -16.0753 0.0118799
2 -9.13933 -12.8866 4.3675
1 -6.7563 -14.5593 -4.42967
2 12.0754 -11.6823 0.125631
2 9.29026 -12.9163 4.32318
2 6.80522 -14.6676 -4.51478
3 6.59899 -0.864616 15.1532
2 3.90251 -5.51381 15.2511
2 -2.58362 6.01826 15.3335
3 2.62149 -6.2012 -15.0495
2 -2.52907 -6.05078 -15.0809
3 3.96275 5.31843 -15.1584
2 14.6245 6.97729 -0.133388
2 14.505 -2.29667 6.61669
3 14.4541 2.18774 -6.44649
1 1.32467 16.0847 0.0294991
2 5.3397 13.6915 6.54065
1 9.31001 11.5268 -6.45005
2 -13.1792 9.21258 0.180742
2 -5.28283 13.9485 6.5818
2 -9.41363 11.544 -6.507
3 -14.5073 -6.90031 0.00013285
3 -14.7295 -2.34815 6.58194
3 -14.5168 2.22283 -6.44948
1 -1.37552 -16.2125 -0.0394201
2 -9.1638 -11.4701 6.57077
3 -5.48772 -13.7844 -6.53609
1 13.2587 -9.14268 0.0866347
2 9.21831 -11.556 6.49184
3 5.35094 -13.817 -6.53193
2 5.3164 1.39262 15.0085
1 1.36154 -5.40727 15.2272
3 -3.99857 3.68681 15.2714
2 4.14736 -3.72173 -15.1004
2 -3.89907 -3.83427 -15.2942
3 1.36265 5.33607 -15.1905
1 13.2214 9.26289 0.022228
2 13.1917 -3.08154 8.69514
2 13.309 3.0234 -8.65931
1 -1.38125 16.2328 0.0745364
2 3.98388 13.1118 8.68998
3 9.22829 9.9886 -8.63218
2 -14.5142 6.93038 0.151631
2 -4.02876 13.0421 8.63377
2 -9.38141 10.0826 -8.68728
1 -13.3121 -9.20236 0.0241178
2 -13.4202 -2.93495 8.72932
3 -13.2295 3.06403 -8.57076
2 1.26077 -16.2178 -0.00537429
2 -9.43417 -9.97292 8.75978
2 -4.02458 -12.792 -8.63716
2 14.5927 -6.80904 0.0108366
2 9.2672 -10.0739 8.62119
2 3.90169 -13.0418 -8.67881
2 4.00574 3.73659 15.0019
2 -1.2918 -5.36646 15.1806
3 -5.47106 1.59496 15.1087
1 5.33874 -1.62098 -15.2935
1 -5.22938 -1.63783 -15.1827
2 -1.23023 5.21539 -15.3509
3 11.9339 11.5436 -0.123242
3 11.859 -3.8606 10.8989
1 11.789 3.75738 -10.8785
2 -3.97697 16.1446 -0.0948731
2 2.69599 12.3044 10.8869
3 9.31199 8.30048 -10.935
2 -15.9254 4.6088 0.168025
2 -2.60967 12.2409 10.9297
2 -9.32971 8.43704 -10.8233
2 -12.0247 -11.634 -7.74553e-06
2 -11.8413 -3.76762 10.7656
3 -11.9758 3.72656 -10.7474
2 4.03532 -16.0199 0.00675475
1 -9.44117 -8.35101 10.8905
2 -2.6777 -12.2279 -10.7477
3 15.9598 -4.42754 -0.00798717
3 9.26221 -8.44535 10.7971
2 2.57245 -12.2265 -10.863
2 2.62143 6.02292 14.9822
3 -4.08384 -5.25522 15.2172
3 -6.58901 -0.731253 15.2206
3 6.65073 0.89647 -15.176
3 -6.77347 0.662681 -15.0264
2 -3.93979 5.36003 -15.0114
2 10.6058 13.8749 -0.0425943
2 10.7287 -4.82393 13.2251
3 10.5355 4.75327 -13.0674
2 -6.63374 16.1941 0.00206618
2 1.43703 11.7434 13.3545
3 9.28181 6.90636 -12.9686
2 -17.343 2.39734 0.0746807
2 -1.24818 11.5021 12.882
2 -9.20155 6.94192 -13.0089
3 -10.5394 -13.9238 -0.0391991
3 -10.4929 -4.56622 12.9781
3 -10.6406 4.57186 -12.9002
1 6.7604 -16.2652 -0.050142
1 -9.24467 -6.96603 13.4214
3 -1.44425 -11.5126 -13.115
2 17.4785 -2.23382 0.027803
1 9.30363 -6.918 13.1132
2 1.21449 -11.4785 -13.0017
3 1.45576 8.28106 15.18
2 -6.7342 -5.43913 15.2629
3 -7.8728 -3.09855 15.2136
2 7.98017 3.16936 -15.1649
2 -7.95616 3.09393 -15.5376
2 -6.57278 5.30802 -15.2392