2891
 Atoms. Timestep: 6000
2 0.10203 0.0237484 0.0383344
3 2.69664 0.0516524 0.0251211
2 1.21806 2.3899 0.11944
2 -1.33488 2.42513 0.105218
3 -2.82674 0.0257402 -0.0554198
2 -1.28239 -2.24825 0.0270286
2 1.5049 -2.39691 0.0875944
1 1.27066 -0.873044 2.36686
3 -0.113399 1.48768 2.22446
2 -1.42461 -0.888945 2.28994
3 1.47228 0.886024 -2.19466
2 -1.40876 0.432442 -2.14453
2 5.21504 -0.00746987 -0.0737621
1 -2.73993 4.6573 -0.124446
3 -5.48718 -0.0763576 -0.142675
1 -2.55499 -4.86946 -0.079812
2 2.692 -4.80712 -0.0308225
1 2.74775 -1.8426 4.4898
3 0.0793663 2.95549 4.35126
2 -2.83933 -1.65944 4.53844
1 0.027261 -3.04067 -4.25395
1 2.82236 1.64898 -4.50183
2 -2.60018 1.56815 -4.50177
2 3.94924 2.3105 -0.081693
2 3.97853 -0.740153 2.07688
2 4.10683 0.73601 -2.23457
1 0.123742 4.75697 -0.190959
2 1.50029 3.97657 2.27489
2 2.60763 3.09338 -2.07224
1 -4.10065 2.27321 -0.197205
2 -0.982079 3.85554 2.25773
1 -2.59813 3.03275 -2.24467
2 -4.07688 -2.36626 -0.118881
2 -4.22433 -0.91838 1.99198
3 -4.06801 0.834819 -2.34624
2 -0.178016 -4.71872 -0.0435903
2 -2.68701 -3.26966 1.95371
2 -1.34435 -3.83872 -2.21022
3 3.9833 -2.54398 -0.120181
3 2.86951 -3.23067 2.23498
2 1.35855 -3.69543 -2.31747
1 1.53418 0.621497 4.63389
2 0.0309946 -1.55196 4.48713
1 -1.23032 0.684256 4.25867
1 1.48104 -0.689419 -4.25406
2 -1.62184 -0.922648 -4.57052
1 0.114807 1.68258 -4.55266
2 2.40932 1.58599 2.20223
1 -0.0493582 3.22163 -2.29692
1 -2.7827 1.43818 2.03951
1 -3.05588 -1.70379 -2.2593
3 -0.048452 -3.2398 2.11277
3 2.72601 -1.53443 -2.10578
2 7.93291 -0.0261616 0.170209
1 4.16464 6.98789 -0.10295
2 -3.98109 7.06722 0.136645
1 -4.01779 -7.13995 -0.0341181
2 4.09935 -7.20455 0.0401024
2 4.21501 -2.41901 6.67686
1 0.0844595 4.58602 6.33769
2 -4.11619 -2.27631 6.66732
3 0.160971 -4.72323 -6.61814
2 4.10689 2.2656 -6.79893
2 -3.87788 2.35191 -6.6122
2 6.65227 2.27137 -0.0229109
3 6.57927 -0.719315 2.0677
1 6.67942 0.790057 -2.29046
2 1.57841 7.25651 -0.137158
3 2.85476 6.21558 2.11152
3 4.0753 5.63413 -2.52401
2 -5.34125 4.64267 0.11889
1 -2.56183 6.12924 2.19049
2 -4.01541 5.44906 -2.23611
2 -6.71611 -2.56827 0.0300382
1 -6.80898 -0.852376 2.08058
2 -6.70475 0.894878 -2.23651
2 -4.03454 -5.5087 2.19926
2 -2.80381 -6.3689 -2.30638
1 5.42601 -4.81867 -0.0542691
2 4.09611 -5.56723 2.16939
3 2.63846 -6.20214 -2.06312
1 2.74101 0.177828 7.047
2 1.43793 -2.28373 6.72592
2 -1.11113 2.13854 6.45911
1 1.4897 -2.19744 -6.51999
1 -1.30982 -2.47825 -6.56844
1 5.24075 4.53568 -0.127344
1 5.43595 -1.44998 4.4609
3 5.29571 1.75933 -4.45964
2 -1.09843 7.06206 -0.136406
1 4.07989 3.92234 -4.51753
1 -6.76328 2.31466 -0.0723054
2 -1.16992 5.49559 4.3576
2 -3.95981 3.81595 -4.24746
3 -5.29159 -4.761 0.0835127
3 -5.36251 -1.74019 4.24114
3 -5.40984 1.71562 -4.46945
2 1.16301 -7.16265 -0.0394292
3 -3.90266 -3.94275 4.3627
1 -1.34898 -5.52519 -4.42485
1 6.64735 -2.29829 -0.0796356
1 4.19856 -3.92344 4.39708
1 1.33914 -5.51605 -4.27632
2 1.36208 2.38435 6.72512
1 -1.26769 -2.34003 6.69313
2 2.74257 0.0186252 -6.5629
2 -2.62786 0.0322151 -6.73556
2 -1.23547 2.35712 -6.64054
2 5.26352 3.1781 -2.15846
2 0.240002 6.372 2.06987
1 -5.50813 3.08995 -2.19731
3 -5.31693 -3.23952 2.16869
2 0.0334366 -6.43421 -1.99585
2 5.38234 -3.07526 2.22951
1 0.147218 -0.073227 6.79779
2 0.0868373 0.136419 -6.60228
1 5.37711 1.6476 2.12106
1 1.41356 5.58494 -2.19753
2 -3.96506 3.90933 2.20256
2 -1.19171 -5.53581 2.16921
3 3.91668 -4.02406 -2.12527
1 4.07169 0.815018 4.36018
1 1.39511 3.97843 -4.47678
2 -2.38677 2.78937 4.18618
2 -4.12264 -0.595544 -4.4631
2 -1.3114 -3.94992 4.38673
1 2.8376 -3.16836 -4.29842
2 4.03208 3.7901 2.10309
3 -1.39071 5.39356 -2.3617
2 -5.27249 1.55586 2.03691
3 -4.03279 -4.21865 -2.20901
2 1.3847 -5.59326 2.08612
1 5.21845 -1.65908 -2.2946
3 2.6584 3.03337 4.56253
3 -1.3833 3.85661 -4.46386
1 -4.09939 0.669465 4.36454
2 -2.80159 -3.18724 -4.37288
2 1.4795 -4.00632 4.35363
2 10.8814 0.160782 -0.0312886
1 5.60636 9.38913 0.141207
3 -5.33508 9.28021 0.0468847
2 -10.7792 -0.0538841 -0.0725117
2 -5.36307 -9.50089 0.137329
1 5.34697 -9.69763 -0.181697
2 5.53525 -3.22395 8.77384
2 0.0576301 6.18297 8.84297
2 -5.40558 -3.24584 8.9109
3 0.0913646 -6.25397 -8.76811
1 5.45403 3.13644 -8.85534
2 -5.42682 3.19692 -8.83089
2 9.32743 2.18805 -0.000341183
2 9.49071 -0.669505 2.28852
1 9.32917 0.618728 -2.36361
1 2.80979 9.50486 -0.0048182
1 4.10155 8.5639 2.16636
2 5.56479 7.88859 -2.19192
2 -6.71854 6.90453 0.0124393
1 -4.01325 8.37137 2.1488
1 -5.37196 7.80225 -2.30309
3 -9.46674 -2.44244 -0.0337783
2 -9.32168 -0.784452 2.1497
3 -2.67995 -9.30137 0.115265
1 -5.40781 -7.74808 2.29289
1 -4.20552 -8.70816 -2.09221
2 5.38564 -7.92595 2.19531
1 3.9659 -8.63312 -2.15023
2 4.14799 -0.838824 8.8715
2 2.82327 -2.9976 8.9933
2 -1.22967 3.73842 8.74005
2 1.39036 -4.02854 -8.72521
2 -1.36839 -4.02503 -8.69724
2 2.77239 3.10559 -8.80151
3 8.13416 4.69664 -0.141043
1 7.96464 -1.62654 4.3299
3 8.09249 1.58314 -4.51247
3 0.144256 9.47823 -0.0692282
3 2.74083 7.6547 4.44313
2 5.41461 6.40343 -4.58872
3 -8.04697 4.53361 -0.157082
1 -5.28485 6.12792 -4.46105
1 -8.0316 -4.85627 0.169218
1 -8.09096 -1.6662 4.23936
2 -8.107 1.71941 -4.41884
1 -0.101341 -9.41744 -0.0318433
1 -5.35032 -6.29697 4.45927
3 -2.80612 -7.8223 -4.39516
3 8.06122 -4.62146 -0.0790925
2 5.43219 -6.24212 4.50254
1 2.64846 -7.7816 -4.30218
1 0.105763 -3.10089 8.87123
2 -2.70719 1.32155 8.39347
2 2.73475 -1.61849 -8.77837
2 -2.63775 -1.57034 -8.77613
3 0.0946539 3.1448 -8.77544
2 6.96903 6.99515 0.122615
3 6.83343 -2.46332 6.67267
1 6.74005 2.23368 -6.70463
2 -2.49351 9.24484 -0.315136
3 1.46823 6.97403 6.58523
1 5.40767 4.78272 -6.68221
2 -9.29197 2.23446 -0.0313959
1 -1.22341 6.98004 6.66188
2 -5.37011 4.71305 -6.51853
1 -6.80298 -7.10015 0.17416
2 -6.76018 -2.36152 6.40567
3 -6.71707 2.3764 -6.59356
2 2.71274 -9.51795 0.02277
3 -5.28947 -4.60497 6.60091
1 -1.35821 -6.99294 -6.66051
2 9.588 -2.63938 -0.0692373
1 5.48521 -4.83462 6.61319
3 1.32492 -6.97434 -6.60753
2 1.44516 3.65115 8.81652
2 -2.71094 -3.04211 8.93167
3 -4.01511 -0.864753 8.91792
3 3.95171 0.747776 -8.85153
2 -4.0834 0.845263 -8.88454
3 -2.58809 3.14324 -8.79805
3 8.10246 3.03076 -2.15325
1 1.45151 8.71384 2.21106
2 -6.8702 5.44252 -2.28865
2 -7.96918 -3.31048 2.32745
2 -1.3745 -8.61285 -2.18926
1 6.81276 -5.64818 2.19182
1 0.040673 -1.40176 -8.71028
2 6.7123 3.94135 -4.51204
3 0.148558 7.88438 4.40836
3 -6.63217 3.91866 -4.41747
2 -6.61077 -4.0992 4.31067
2 0.0399577 -7.75363 -4.45189
2 6.905 -3.91196 4.46991
1 -1.4494 -0.910286 8.83585
3 -1.38747 0.805764 -8.75135
3 8.04025 1.64978 2.27308
2 2.75322 7.90822 -2.36498
3 -5.33917 6.08426 2.22036
2 -7.87468 -1.7455 -2.25491
1 -2.46945 -7.80943 2.27085
3 5.30797 -6.3717 -2.18504
1 6.66989 0.8459 4.41772
1 2.56777 6.29943 -4.5854
2 -6.60279 -0.693776 -4.38028
3 -2.65233 -6.2234 4.31745
3 4.05252 -5.46242 -4.51045
2 5.45048 -0.210686 6.80046
3 2.61222 4.80745 -6.64269
1 -2.59918 4.63094 6.41109
1 -5.23186 0.000907553 -6.7606
2 -2.68867 -4.58616 6.5605
1 2.77328 -4.72106 -6.40262
2 6.80763 5.31311 -2.11613
1 -1.16234 8.58553 2.14406
3 -7.96437 3.15974 -2.2793
1 1.34377 -8.50846 -2.25754
1 8.0111 -3.14937 2.18304
3 -0.0967735 1.53855 8.67542
2 1.29095 0.885833 -8.6847
1 6.87156 3.94737 1.98862
3 0.105201 7.96057 -2.27017
3 -6.69205 3.86774 2.16978
3 -6.82274 -4.1695 -2.03442
3 0.151561 -8.01559 2.24533
3 6.75465 -4.02432 -2.15342
2 5.34769 3.15818 4.43765
3 -0.0587849 6.2951 -4.4136
1 -5.08352 3.10585 4.26111
1 -5.68629 -3.03314 -4.09022
2 0.0694473 -6.31417 4.30632
2 5.24252 -3.2321 -4.27338
3 4.05416 2.38143 6.53921
1 -3.89211 2.1585 6.44933
1 -3.89537 -2.41853 -6.43408
2 0.0892439 -4.62847 6.6711
2 4.16541 -2.39471 -6.51618
2 5.36589 5.94662 2.24507
2 -2.48391 7.75953 -2.25777
2 -7.82402 1.45692 2.10592
3 -5.46878 -6.44903 -2.10328
1 2.7691 -7.8244 2.37886
1 8.00827 -1.65774 -2.32944
2 3.94393 5.344 4.39414
2 -2.59065 6.15639 -4.40796
2 -3.99639 -5.44782 -4.46202
1 2.95615 -6.29534 4.53778
2 6.67295 -0.785731 -4.4661
3 2.64197 4.49119 6.52838
2 -2.65474 4.52327 -6.83897
3 -2.60926 -4.66824 -6.59262
1 2.78268 -4.71992 6.65147
1 5.20921 0.0925776 -6.53403
2 13.6213 0.083537 -0.188215
3 6.92327 11.7935 0.0378964
2 -6.63956 11.6074 -0.10542
2 -6.82645 -11.8115 0.0922884
3 6.73719 -11.8272 0.0966142
2 6.88797 -3.91202 11.1438
1 0.0625036 7.77897 11.3222
2 -6.88207 -3.90806 11.2022
1 -0.0662832 -7.76267 -10.8327
2 6.77985 3.75778 -11.0486
2 -6.86245 3.99928 -11.1603
3 12.123 2.40396 -0.0511238
2 12.1094 -0.531572 2.19167
2 11.9609 0.79435 -2.29135
2 4.34566 11.6426 0.0612462
2 5.52899 10.8491 2.27185
1 6.66063 10.1623 -2.14917
1 -7.90066 9.2286 0.0334121
1 -5.32409 10.7523 2.14455
3 -6.60097 10.0963 -2.2743
2 -12.14 -2.48245 -0.0109413
2 -12.1264 -0.679357 2.12725
1 -11.8982 0.889592 -2.09028
2 -4.14281 -11.7601 0.150447
1 -6.56012 -10.2326 2.35261
2 -5.52175 -11.0199 -2.13292
1 7.92846 -9.33316 0.164365
2 6.72252 -10.0859 2.12576
2 5.41857 -1.58934 11.1307
2 4.01211 -3.92837 11.0552
1 -1.23852 5.27979 10.9777
1 1.27899 -5.38288 -11.0334
2 -1.53607 -5.58348 -10.8078
2 3.90953 4.02868 -11.1039
1 10.9121 4.64395 -0.162252
3 10.8399 -1.60559 4.27157
3 10.6552 1.61824 -4.5494
1 1.55819 11.7699 -0.140133
1 4.01603 10.0424 4.39971
1 6.95623 8.58973 -4.3962
2 -9.44887 6.916 0.0278637
1 -3.92425 9.87753 4.30485
2 -6.50179 8.85495 -4.52826
1 -10.817 -4.72984 0.13181
3 -10.8622 -1.45973 4.15594
3 -10.7134 1.47094 -4.28174
3 -1.47354 -11.7586 0.0637544
2 -6.65322 -8.5377 4.57542
2 -4.1238 -10.2272 -4.34924
1 9.39445 -6.8796 -0.077872
1 6.93114 -8.82736 4.36819
3 3.88895 0.603549 10.9831
3 1.43334 -3.72472 11.1044
2 -2.66103 3.08584 10.9763
2 2.8312 -3.05436 -11.1324
2 -2.77083 -3.1907 -10.8108
2 1.24384 3.95793 -10.9059
1 9.50039 6.87493 -0.0544529
2 9.47143 -2.34337 6.41281
2 9.41097 2.27287 -6.77941
2 -1.27959 11.6303 0.0064527
3 2.92583 9.36995 6.79179
2 7.12602 7.05154 -6.50877
1 -10.6687 4.48898 0.129308
1 -2.67498 9.38136 6.51756
2 -6.76256 7.06429 -6.50601
1 -9.50381 -7.08405 0.258011
1 -9.57132 -2.52071 6.48154
1 -9.24868 2.28278 -6.75592
3 1.25074 -11.7568 0.0160225
1 -6.71581 -7.07137 6.77274
2 -2.70908 -9.52278 -6.5194
2 6.67261 -6.99862 6.74731
2 2.69085 -9.18771 -6.43698
2 2.78446 3.03781 10.9726
1 -1.25776 -3.87796 11.0574
2 -4.03586 0.918036 10.8377
1 3.90828 -0.663274 -11.165
2 -4.22101 -0.719964 -10.9858
2 -1.27362 3.96267 -11.0748
1 8.24986 9.28731 0.0607715
2 8.11325 -3.20687 8.77919
3 8.07173 2.95367 -8.85116
2 -3.7937 11.5075 -0.221166
1 1.29471 8.49521 8.8584
2 6.77496 5.50065 -9.02082
2 -11.9994 2.29326 0.159973
2 -1.39479 8.52024 8.92071
3 -6.82611 5.58418 -8.68756
3 -8.06751 -9.40522 0.181186
1 -8.16346 -3.03235 8.85997
2 -7.98697 3.02831 -8.87521
3 3.87608 -11.7664 0.0578318
2 -6.74919 -5.51099 8.91281
3 -1.38992 -8.60687 -8.86863
1 12.2205 -2.30597 -0.00239895
2 6.75192 -5.40454 8.77135
1 1.31406 -8.58915 -8.59066
2 1.39088 5.34952 11.0359
2 -3.83463 -3.94876 11.1371
2 -5.32464 -1.72089 10.9493
1 5.49848 1.5494 -11.1176
2 -5.23422 1.70239 -10.9632
1 -3.94649 3.8899 -11.1443
1 10.5882 2.95283 -2.18236
3 2.85364 10.9262 2.17005
1 -8.01522 7.7528 -2.19109
2 -10.8704 -3.08946 2.2424
1 -2.60851 -11.0103 -2.11426
2 8.05362 -7.63124 2.19549
3 2.76562 -1.50474 11.1145
2 -0.0874729 -3.1494 -10.8661
1 9.3405 3.87141 -4.51603
2 1.44421 9.99899 4.26397
1 -8.07959 6.32528 -4.37005
2 -9.60443 -3.98839 4.4907
2 -1.39814 -10.3318 -4.48954
2 8.1056 -6.30333 4.57703
3 0.0671687 -1.61026 11.071
1 -1.44453 -0.652979 -10.8333
2 8.09356 4.56835 -6.93299
2 0.033686 9.17539 6.67355
2 -7.89746 4.59566 -6.53689
1 -8.01259 -4.54312 6.65644
3 -0.103767 -9.27459 -6.53332
3 8.15552 -4.60809 6.59027
2 -2.57014 -1.48718 11.1263
2 -2.50269 1.62849 -11.0238
3 10.716 1.6484 2.0892
2 -6.64518 8.23027 2.15921
2 -10.8346 -1.60282 -2.07693
2 -3.89313 -10.0298 2.24232
1 6.74658 -8.52344 -2.0801
2 9.42201 0.802948 4.41905
1 4.12457 8.6502 -4.30099
3 -5.29671 7.56275 4.46868
2 -9.37587 -0.79674 -4.17546
1 -3.85574 -8.68622 4.58426
1 5.4426 -7.90803 -4.33866
3 8.11569 0.124357 6.64784
2 3.89284 7.09942 -6.67228
1 -3.92661 6.95524 6.49669
2 -8.06711 0.0863399 -6.44794
1 -3.89082 -7.00653 6.63666
1 4.13164 -7.13174 -6.52681
1 6.75169 -0.783361 8.89272
2 4.07164 5.58465 -8.78863
1 -2.64556 6.185 8.89719
1 -6.66078 0.675513 -8.8648
2 -4.09358 -5.50369 8.75145
2 2.675 -6.21235 -8.63387
3 9.4162 5.47629 -2.32175
2 0.154246 11.0033 2.02618
2 -9.54305 5.19261 -2.15264
2 -9.33693 -5.64475 2.44023
2 -0.00668851 -10.8707 -2.18844
1 9.66937 -5.36261 2.00058
3 1.37863 0.768846 11.151
2 1.17828 -0.764157 -10.9256
2 8.22176 6.10625 -4.54028
2 -1.28042 9.91149 4.2055
3 -9.35787 3.84653 -4.39153
3 -8.01899 -6.2789 4.58688
3 1.36547 -10.0008 -4.41293
2 9.64307 -3.98376 4.31842
2 -1.39541 0.869518 11.0504
2 0.0309443 1.76641 -11.0195
2 9.53616 3.86125 2.0882
2 1.45658 10.2174 -2.16965
2 -8.05855 6.08853 2.24916
2 -9.53011 -3.86319 -2.22045
3 -1.30078 -10.1707 2.21943
2 8.00479 -6.27192 -2.13272
2 8.08095 3.2843 4.40864
3 -6.60438 5.22729 4.45255
3 -1.24722 -8.43694 4.35429
2 6.73642 -5.48316 -4.48536
2 6.64649 2.35409 6.63333
2 1.27474 6.94707 -6.64293
2 -5.22877 4.54702 6.55302
2 -6.44773 -2.37154 -6.55074
1 -1.35605 -6.97412 6.66185
2 5.39642 -4.74978 -6.6146
3 5.19133 1.45749 8.79862
2 1.42404 5.56743 -8.72589
3 -3.99039 3.76607 8.70653
3 -5.24644 -1.68678 -8.83206
2 -1.45048 -5.58831 8.80042
1 4.19839 -3.84988 -8.83808
2 8.28311 7.9526 -2.20481
3 -2.5845 10.8115 2.12116
1 -10.5863 3.07206 -2.19078
3 -7.97453 -7.74138 2.43719
2 2.60334 -10.9733 -2.2868
2 10.7978 -3.11908 2.19911
3 -0.0689415 2.97352 10.9547
2 2.59739 1.48969 -11.0552
2 8.23894 6.09827 2.19669
2 -1.10404 10.283 -2.36063
3 -8.21924 -6.25008 -2.09002
2 1.45651 -10.2585 2.15876
2 9.29105 -4.04974 -2.29252
2 6.9855 5.41767 4.4462
2 -1.34626 8.59739 -4.55858
2 -8.07175 3.24342 4.13369
2 -6.65174 -5.52551 -4.2771
2 1.37612 -8.57973 4.48053
1 7.96457 -3.25421 -4.38359
1 5.38439 4.79407 6.75175
2 -1.47017 6.9685 -6.64681
2 -6.54028 2.27779 6.13043
1 -5.50893 -4.76623 -6.41391
1 1.39464 -7.02658 6.80668
2 6.75784 -2.35213 -6.69855
2 3.92512 3.8601 8.68941
2 -1.25805 5.54704 -8.87233
2 -5.36573 1.31408 8.40267
2 -4.19316 -3.87025 -8.51336
1 1.43092 -5.45676 8.87947
2 5.38686 -1.44024 -8.90232
2 6.90713 8.39804 2.39783
1 -3.88911 9.95566 -2.23229
1 -10.4645 1.60502 2.31847
1 -6.78922 -8.61179 -1.94249
3 4.08354 -10.1531 2.16917
1 10.8654 -1.50143 -2.16372
2 5.43069 7.65033 4.44403
3 -3.97103 8.7163 -4.63921
2 -9.19127 0.702718 4.43077
2 -5.44615 -7.89985 -4.40151
3 4.25439 -8.51525 4.49987
1 9.35685 -0.898954 -4.46505
2 3.99866 6.94859 6.62315
2 -4.08795 6.95391 -6.61978
1 -7.74142 -0.104064 6.56487
2 -3.95485 -6.97462 -6.75396
3 3.99007 -7.05621 6.8839
3 7.94572 -0.077906 -6.73057
2 2.69068 6.11533 8.64852
1 -4.19443 5.55369 -8.74111
2 -6.74676 -0.931752 8.53168
1 -2.69141 -6.17602 -8.72216
3 4.06645 -5.31967 8.89704
1 6.85188 0.845353 -9.03903
2 16.3906 -0.0124974 -0.121939
2 8.26868 14.1988 -0.244149
2 -8.17097 14.0445 0.0422777
2 -16.1783 -0.021695 -0.139221
2 -8.17841 -14.1569 0.290243
3 7.89551 -13.9915 0.0409045
1 6.91017 -5.42543 15.11
2 -0.0862475 9.40529 13.2946
2 -8.08943 -4.78892 13.2892
1 -0.0631955 -9.2783 -13.1785
3 8.05764 4.66952 -13.1208
3 -8.16329 4.72828 -13.3472
1 14.8665 2.36767 0.0127883
1 14.9926 -0.691988 2.21713
2 14.863 0.7663 -2.29442
3 5.59083 14.0381 0.0323986
2 6.82162 13.3905 2.14314
2 7.96577 12.4094 -2.17823
1 -9.35253 11.7271 -0.265484
1 -6.72364 13.1865 2.05683
3 -15.0003 -2.50042 -0.0477308
2 -14.9286 -0.848368 2.06114
2 -14.6621 0.712378 -2.20392
1 -5.5733 -14.0099 -0.0622868
1 -8.1258 -12.6238 2.29572
3 -6.84004 -13.3713 -2.12769
3 9.31139 -11.6817 0.0246642
3 6.34288 -13.1691 -2.21289
2 6.72476 -2.3516 13.315
1 5.33239 -4.67482 13.1045
2 -1.42618 7.08488 13.4235
3 1.44324 -7.07274 -13.1082
3 -1.42148 -6.99951 -13.0325
2 5.37472 4.78276 -13.2589
1 13.473 -1.54574 4.25184
2 13.3956 1.42405 -4.5447
3 2.7173 14.1225 0.0483937
2 5.4196 12.3035 4.29917
1 7.98757 11.0602 -4.36561
2 -10.6051 9.17968 -0.0598924
1 -5.19948 12.3868 4.24897
1 -7.82079 11.1107 -4.41075
2 -13.3138 -4.85348 -0.129625
1 -13.5446 -1.71487 4.01657
3 -13.3974 1.49242 -4.26172
2 -2.69008 -14.0962 0.289595
3 -7.89431 -11.0338 4.62324
2 -5.52178 -12.6162 -4.38117
3 10.661 -9.31025 0.0660443
3 5.08492 -12.2317 -4.4253
3 5.4191 -0.058553 13.2991
3 2.61855 -4.61968 13.123
1 -2.71691 4.58152 13.138
2 2.78601 -4.86108 -13.2777
2 -2.68577 -4.70405 -13.1303
3 2.60172 4.61899 -13.1072
2 12.1965 7.10278 -0.163429
3 12.1466 -2.31695 6.63013
2 12.1524 2.26856 -6.60837
2 0.10817 13.9753 0.00934834
1 4.11878 11.735 6.4296
2 8.14614 9.33796 -6.64363
2 -11.9639 6.85153 -0.196082
1 -4.06128 11.5105 6.59801
2 -8.06789 9.40862 -6.65532
2 -12.2454 -7.21597 0.026433
2 -12.009 -2.23344 6.44403
1 -12.0171 2.25808 -6.611
2 -0.0543493 -14.0282 0.0333839
2 -7.83674 -9.33055 6.81816
1 -3.91981 -11.8492 -6.7468
3 12.0133 -6.98728 0.0397498
2 8.05715 -9.39128 6.64393
3 3.93859 -11.7441 -6.52519
1 3.97661 2.30432 13.1839
3 0.0172929 -4.57496 13.1674
2 -4.22657 2.37963 13.074
1 3.93144 -2.21952 -13.3647
1 -4.15725 -2.21159 -13.1655
2 0.0949629 4.62292 -13.3366
1 10.7639 9.17504 0.138148
2 10.7639 -3.21943 8.81249
2 10.6813 3.15513 -8.91569
2 -2.64208 14.1017 -0.179244
2 2.6214 10.9294 8.77203
3 8.08056 7.81479 -8.83469
2 -13.4818 4.60564 -0.147995
3 -2.7012 10.8151 8.81145
1 -8.1058 7.9344 -8.84679
2 -10.6688 -9.49602 0.0840902
2 -10.9127 -3.01786 8.80266
3 -10.8012 2.85994 -8.93615
2 2.60726 -14.1784 -0.0428971
1 -7.80453 -7.84152 9.26707
3 -2.57082 -10.8701 -8.90019
2 13.5123 -4.55425 -0.024259
1 8.05675 -7.6611 8.86843
3 2.64417 -10.9012 -8.76818
3 2.55797 4.78277 13.183
1 -2.63385 -4.53385 13.2096
2 -5.53208 -0.067061 13.0756
1 5.28598 0.0824083 -13.5175
2 -5.528 0.201752 -13.171
3 -2.59852 4.68892 -13.3482
2 9.50342 -3.89085 11.1371
3 9.41379 3.9692 -11.2323
2 -5.21554 14.0067 -0.145026
2 1.14103 10.0456 10.8963
2 8.17181 6.19013 -11.0579
2 -14.6111 2.38495 -0.0547951
3 -1.3868 9.99214 10.9504
2 -8.17072 6.10405 -11.1017
3 -9.48719 -11.7485 0.106396
2 -9.58192 -3.87125 11.0362
1 -9.39888 3.6666 -11.0826
1 5.22158 -14.0055 0.0332349
2 -8.17622 -6.28198 11.2055
1 -1.34079 -10.0221 -11.0207
2 14.9995 -2.29092 -0.0723452
3 7.98609 -6.1823 11.0811
2 1.37897 -9.99407 -10.9191
2 1.21393 6.91605 13.3743
2 -5.47131 -4.7618 13.3748
2 -6.81251 -2.43222 13.4243
1 6.85737 2.41694 -13.3224
1 -6.84579 2.49583 -13.285
2 -5.27559 4.62517 -13.1428
1 13.4698 2.98798 -2.1732
2 4.07659 13.2104 2.11899
2 -9.2107 10.2479 -2.23631
2 -13.561 -3.13595 2.06446
2 -4.03911 -13.33 -2.23597
2 9.52407 -10.1334 2.1323
3 3.98624 -2.32653 13.2744
2 0.0313917 -4.72992 -13.0716
2 12.0075 3.74711 -4.4735
2 2.60883 12.4333 4.38843
2 -9.3607 8.61992 -4.5219
2 -12.1536 -3.82989 4.36596
2 -2.58807 -12.6233 -4.30979
2 9.42581 -8.69196 4.4355
3 1.34391 -2.34847 13.2143
3 -1.52657 -2.41773 -12.9775
1 10.8784 4.71708 -6.69184
2 1.25653 11.541 6.54333
2 -9.36439 7.07986 -6.63373
1 -11.3203 -4.67924 6.53993
1 -1.30868 -11.675 -6.62322
2 9.37008 -6.94901 6.6421
3 -1.32172 -2.28829 13.2755
2 -2.58904 0.168327 -13.1372
1 9.50603 5.55623 -8.95084
3 -0.00904348 10.8453 8.84248
2 -9.41863 5.18982 -8.89105
2 -9.43847 -5.41507 8.93967
2 0.00362296 -10.8848 -8.6006
2 9.39208 -5.43196 8.97739
2 -3.93866 -2.44992 13.3804
1 -4.0911 2.46878 -13.322
3 13.4305 1.63961 2.14294
1 5.41491 12.493 -2.09548
1 -7.9953 10.7942 2.11184
1 -13.3492 -1.5564 -2.01295
2 -5.21907 -12.6206 2.48578
1 7.91417 -10.9316 -2.14012
1 12.061 0.795026 4.41264
3 5.39325 10.9644 -4.47971
1 -6.6061 9.84871 4.43002
2 -12.0012 -0.572726 -4.30859
1 -5.1473 -10.9079 4.51846
2 6.62114 -10.2012 -4.18432
2 10.6773 0.021812 6.59237
2 5.37019 9.37643 -6.47085
2 -5.21305 9.16302 6.6458
2 -10.7363 -0.00469721 -6.67605
3 -5.28473 -9.43462 6.79862
1 5.28708 -9.5074 -6.51802
2 9.31631 -0.911329 8.7194
1 5.47929 7.71677 -8.80609
3 -3.95664 8.54266 8.84373
3 -9.47912 0.64772 -8.84507
2 -5.30258 -7.86784 8.99636
3 3.85029 -8.56146 -8.70269
2 8.21379 -1.55888 10.9989
2 5.45673 6.26757 -11.0479
2 -2.63798 7.8563 11.1461
2 -7.85894 1.36021 -11.0486
3 -5.3723 -5.86601 11.0616
1 2.66462 -7.66542 -10.7943
2 12.1738 5.21427 -2.07134
2 1.41433 13.3222 2.11012
2 -10.7653 7.7144 -2.27221
2 -12.1797 -5.56711 2.31558
2 -1.40042 -13.2962 -2.22723
1 10.7385 -7.65285 2.08824
2 2.63112 -0.137115 13.1158
3 1.17889 -2.45701 -12.9868
1 10.962 6.21097 -4.23883
2 -0.0898169 12.3941 4.30343
1 -10.7169 6.24543 -4.45868
1 -10.8036 -6.24865 4.39812
3 -0.0492998 -12.6449 -4.31792
2 10.9166 -6.41264 4.50578
2 -0.0706754 -0.0317673 13.0898
2 -1.48499 11.5769 6.49478
2 -10.6879 4.45819 -6.61209
1 -9.37488 -6.93728 6.5954
2 1.35123 -11.5882 -6.48472
2 10.8642 -4.74454 6.6202
2 -2.6541 0.046365 13.2545
2 -1.27458 2.41583 -13.495
2 12.1391 3.87779 2.32363
3 2.71038 12.4736 -2.26872
2 -9.31733 8.48007 2.35856
3 -12.0451 -4.00712 -2.15849
3 -2.71399 -12.372 2.33082
2 9.28957 -8.64623 -1.92012
2 10.7661 3.14772 4.36344
1 2.73674 10.836 -4.28473
3 -8.16007 7.62989 4.61775
3 -10.6287 -3.08885 -4.43894
2 -2.48038 -10.8677 4.66881
3 8.02673 -7.84196 -4.37189
3 9.35082 2.33911 6.7159
2 2.78431 9.52176 -6.61217
1 -6.78664 6.85352 6.53799
2 -9.19518 -2.52759 -6.52126
3 -2.52625 -9.3396 6.70833
1 6.71861 -7.10753 -6.49655
2 7.83438 1.49723 8.74825
3 2.65637 7.82334 -8.85918
1 -5.27461 6.14218 8.81801
1 -7.87479 -1.71121 -8.69111
1 -2.75537 -7.99226 8.89665
1 5.37906 -6.38858 -8.77978
2 6.65416 0.811904 11.1746
2 2.69692 6.37378 -11.083
3 -4.00283 5.13418 10.9443
3 -6.72031 -0.962466 -11.0559
2 -2.78527 -6.36961 11.1439
2 4.035 -5.42028 -10.7852
1 10.7076 8.035 -2.29547
2 -12.146 5.59987 -2.41708
2 -10.7412 -8.07224 2.3665
2 1.29115 -13.2938 -2.17736
2 12.2281 -5.53289 2.09377
2 1.20917 2.43156 13.2397
2 2.30646 -0.121003 -13.3205
2 9.67063 8.42426 -4.54869
2 -2.6849 12.4959 3.99616
3 -11.9935 3.85648 -4.385
3 -9.30962 -8.55855 4.53738
2 12.3674 -3.87011 4.35262
3 -1.42187 2.37295 13.2794
3 1.41429 2.33908 -13.3367
2 10.8185 6.12486 2.07858
3 0.136981 12.5959 -2.19664
3 -10.775 6.09717 2.13113
2 -10.847 -6.40342 -2.06542
2 -0.0197603 -12.363 2.16397
2 10.7739 -6.48876 -2.27548
1 9.50686 5.44031 4.49487
2 0.193874 10.8157 -4.50074
3 -9.53066 5.33413 4.35116
2 -9.30731 -5.52238 -4.25466
2 0.0725875 -10.8851 4.34212
3 9.3416 -5.641 -4.39394
1 -8.08929 4.56437 6.38786
2 -8.17961 -4.83915 -6.5319
2 0.0632841 -9.38369 6.44368
2 8.22795 -4.71217 -6.67705
2 6.71755 3.72387 8.85249
2 -0.051892 7.82582 -8.85844
1 -6.65532 3.64592 8.45791
2 -6.78915 -4.12815 -8.58029
2 -0.0153371 -7.97951 8.92436
2 5.40164 2.93291 10.9922
2 -0.0172807 6.45493 -11.0884
2 -5.57372 3.01228 10.8008
2 -5.4715 -3.22241 -10.9513
3 0.0128414 -6.30781 11.0714
2 5.53611 -3.13264 -11.2498
1 -3.93679 13.1688 1.98016
2 -13.2911 3.11163 -2.32888
2 -9.1819 -10.1352 2.41902
3 3.93869 -13.3461 -2.15906
3 13.5121 -3.13106 2.0011
2 -0.0982126 4.62202 13.3267
1 4.00734 2.46903 -13.2178
3 9.49176 8.30356 2.14195
3 -2.54129 12.5266 -2.35632
3 -12.0762 3.69353 2.29615
3 -9.56172 -8.61796 -2.09161
1 12.1207 -3.87209 -2.24217
3 8.25754 7.68048 4.46086
1 -2.62271 10.9937 -4.45731
2 -10.8244 2.98653 4.47277
3 -7.97605 -7.90269 -4.2967
2 2.8131 -10.9641 4.30205
1 10.7614 -3.212 -4.40912
2 6.81381 6.93992 6.57035
2 -2.672 9.54014 -6.71386
1 -9.25966 2.27634 6.45616
3 -6.76145 -7.17441 -6.3746
3 2.61651 -9.53084 6.65606
1 9.40581 -2.43675 -6.65119
2 5.39176 6.18948 8.83018
3 -2.78549 7.80034 -8.66623
1 -8.05416 1.43445 8.70096
3 -5.57126 -6.32005 -8.73412
2 2.74544 -7.73056 8.84381
3 7.91942 -1.57883 -8.92877
3 4.06184 5.26739 10.8867
2 -2.64457 6.3384 -10.9925
2 -6.68715 0.691178 10.7539
2 2.72187 -6.16054 10.9112
2 6.90021 -0.674888 -11.0391
2 8.18246 10.9005 2.18848
1 -5.25037 12.3666 -2.17825
3 -13.7307 1.49496 2.02659
2 5.27635 -12.4782 2.20671
3 6.70943 9.90187 4.43373
3 -5.21412 11.1003 -4.44647
1 -12.3917 0.968125 4.29285
2 -6.74936 -10.2753 -4.27066
3 5.27473 -10.8435 4.15852
1 12.1286 -0.898532 -4.40418
1 5.37303 9.37272 6.61478
2 -5.28214 9.52118 -6.67145
2 -10.5644 -0.106002 6.40161
2 -5.37848 -9.57559 -6.6459
2 5.25422 -9.38188 6.77113
1 10.841 -0.0551042 -6.717
2 4.00927 8.64499 8.90594
2 -5.46526 7.90025 -8.81952
2 -9.52094 -0.761606 8.79157
1 -3.9984 -8.6046 -8.78505
3 5.28731 -7.8152 8.92829
2 9.44278 0.681263 -8.88218
2 2.68164 7.53143 11.0493
2 -5.42618 6.10964 -10.9278
2 -8.1011 -1.457 11.1685
3 -2.68308 -7.86743 -11.0186
2 5.45116 -6.19481 10.908
3 18.8869 -0.084796 -0.264038
3 9.48668 16.4404 -0.0233961
3 -9.33538 16.2527 -0.135055
3 -18.7771 -0.163435 -0.159584
1 -9.54836 -16.3001 0.100188
2 9.12603 -16.2896 -0.0745383
1 9.57336 -5.35748 15.8095
2 0.246311 10.9711 15.5843
2 -9.59305 -5.33449 15.5688
3 -0.134953 -10.8718 -15.2531
3 9.20894 5.50347 -15.0999
3 -9.4943 5.44465 -15.6375
3 17.6945 2.24536 -0.0744567
1 17.5091 -0.683062 2.01859
2 17.6598 0.864796 -2.51566
2 6.75531 16.311 -0.143508
2 8.27906 15.553 2.19452
1 9.55907 15.0003 -2.28143
3 -10.7298 13.8802 -0.11343
2 -8.09666 15.6113 2.23709
3 -9.27637 14.7158 -2.3339
1 -17.5985 -2.47699 -0.0217424
3 -17.4464 -0.821257 2.13151
2 -17.4104 0.901511 -2.29394
2 -6.81714 -16.2286 0.10213
3 -9.47479 -14.8527 2.46336
2 -8.03104 -15.5165 -2.19152
1 10.6285 -13.9152 -0.0424244
2 9.57059 -14.6096 2.26049
2 7.69035 -15.2509 -2.21879
2 8.10686 -3.03131 15.8467
1 5.39975 -3.28903 15.463
1 -1.14817 8.19748 15.7321
3 1.15535 -8.63698 -15.351
3 -1.46707 -8.45241 -15.3224
2 6.5871 5.50956 -15.4443
2 16.3128 4.44797 -0.025817
1 16.2102 -1.56575 4.29366
2 16.0492 1.35365 -4.63643
1 4.12173 16.3417 -0.0274127
3 6.60896 14.8009 4.33797
1 9.38359 13.3492 -4.44205
2 -6.74112 14.7712 4.37174
3 -9.46554 13.263 -4.37421
2 -16.1428 -1.61576 4.45234
3 -16.1288 1.56552 -4.31018
2 -4.23663 -16.2652 0.0155205
2 -9.32501 -13.2425 4.70343
2 -6.89985 -14.7446 -4.49921
3 12.2181 -11.71 0.00515831
1 9.2276 -13.1532 4.21052
1 6.86736 -0.705246 15.5394
2 3.87516 -5.43598 15.2779
1 -2.80196 6.05938 15.4928
2 2.48966 -6.49148 -15.4087
2 -2.59877 -6.20965 -15.2506
1 4.05056 5.20708 -15.3688
3 14.9434 7.12782 -0.0578721
1 14.7555 -2.46339 6.53677
3 14.8821 2.18074 -6.6815
1 1.41805 16.4437 0.0133009
2 5.23454 13.9304 6.42076
3 9.50045 11.757 -6.48157
2 -13.2935 9.25338 -0.25897
1 -5.30528 13.9313 6.59948
1 -9.35145 11.6879 -6.60892
3 -14.8809 -7.02825 0.0251354
2 -14.8565 -2.31036 6.52762
2 -14.5343 2.21362 -6.36356
2 -1.40949 -16.292 0.151091
1 -9.22865 -11.6263 6.79703
2 -5.25414 -13.974 -6.81557
2 13.3338 -9.26829 0.0395734
3 9.17109 -11.7117 6.44049
2 5.3507 -13.954 -6.4319
1 5.30399 1.56883 15.4195
1 -4.15082 3.66839 15.2951
1 3.99439 -3.86964 -15.4791
2 -3.88692 -3.73535 -15.243
3 1.37789 5.36658 -15.4577
2 13.4308 9.48114 0.285759
1 13.5061 -3.2215 8.79627
2 13.3948 2.96834 -9.12135
2 -1.34851 16.4024 -0.0543896
3 3.90283 13.1533 8.68291
2 9.48296 10.19 -8.8423
1 -14.7115 7.02552 -0.254582
3 -4.02128 13.1043 8.74908
2 -9.3919 10.1513 -8.84706
3 -13.6029 -9.3448 0.0501157
1 -13.4489 -3.01482 8.85074
1 -13.4541 3.04092 -8.78253
3 1.20586 -16.4491 0.0921134
2 -9.23913 -10.0336 8.95611
2 -3.92453 -13.08 -8.85032
3 14.7033 -7.03028 -0.0818953
1 9.35768 -10.066 8.66363
2 4.02986 -13.2256 -8.65259
3 4.1225 3.92737 15.4171
1 -1.3451 -5.26209 15.4103
2 -5.344 1.42099 15.3523
1 5.10039 -1.44391 -15.5402
2 -5.50135 -1.34027 -15.357
3 -1.29588 5.36015 -15.2934
1 11.9971 11.8015 0.0382995
2 12.2211 -4.10606 11.0395
2 12.0779 4.02709 -11.1256
3 -4.04042 16.3401 -0.0899313
3 2.44372 12.3047 10.9493
3 9.4241 8.57406 -10.937
1 -16.2659 4.56268 -0.121916
3 -2.92325 12.1633 11.0762
2 -9.43996 8.71096 -11.0015
3 -12.1257 -11.7504 0.274339
3 -12.1924 -3.93562 10.9716
2 -12.0878 3.54248 -11.2336
3 4.04985 -16.3633 0.135502
3 -9.42501 -8.72181 11.2842
2 -2.55212 -12.4858 -11.0814
3 16.1163 -4.84281 -0.265503
3 9.31441 -8.56529 11.0156
2 2.75044 -12.3697 -10.9938
2 2.57802 6.16032 15.4598
2 -4.229 -5.38354 15.6368
2 -6.81398 -0.68553 15.3106
3 -6.78455 0.972509 -15.323
3 -4.06464 5.44496 -15.2959
1 10.8155 14.2164 -0.0425614
3 10.5832 4.58513 -13.1134
1 -6.72528 16.3242 0.0132073
3 1.35518 11.5882 13.3603
3 9.29732 6.91959 -13.2072
3 -17.4669 2.10647 -0.126849
2 -1.38399 11.496 13.1696
1 -9.59394 7.13255 -13.5822
3 -10.8376 -14.1161 0.211769
3 -10.8948 -4.6025 13.2547
1 -10.8266 4.72664 -13.2936
3 6.5793 -16.2236 0.112414
2 -9.54352 -6.83745 13.445
3 -1.21612 -11.6749 -13.1701
1 17.6584 -2.51934 -0.107419
2 9.51145 -7.38662 13.2395
2 1.33797 -11.7158 -13.1132
2 1.2192 8.5893 15.432
1 -6.89911 -5.34669 15.4276
2 7.88088 3.3189 -15.3169
3 -8.13853 3.31508 -15.4389
2 16.2033 3.22914 -2.27101
2 5.53337 15.5874 1.95755
3 -10.8074 12.4891 -2.45925
1 -16.0605 -3.07503 2.11034
3 -5.61253 -15.4574 -2.13273
2 10.866 -12.551 2.13722
1 0.0179064 -6.22837 -15.1534
2 14.742 3.64789 -4.76552
2 3.999 14.9079 4.35742
1 -10.6426 10.9011 -4.46176
3 -14.7651 -3.9558 4.2668
1 -3.81219 -15.0069 -4.46203
3 10.7674 -10.9348 4.45092
3 2.68713 -3.22841 15.334
1 -1.07346 -3.7601 -15.3749
3 2.54417 13.944 6.45638
3 -10.7292 9.28013 -6.61347
3 -2.51958 -14.0792 -6.56618
3 10.6407 -9.26191 6.57252
2 -0.00496389 -3.17385 15.3771
1 -2.51609 -1.52811 -15.228
2 12.229 5.61444 -8.93966
1 1.25995 13.2049 8.85594
1 -10.8903 7.67288 -8.88025
1 -12.0798 -5.40176 9.00275
2 -1.17934 -13.311 -8.80037
2 10.7415 -7.88806 8.85389
3 -2.73784 -3.25667 15.5596
3 -4.02543 0.732193 -15.2887
3 -0.12607 12.2412 10.9094
2 -10.7454 6.11574 -11.0904
2 -10.9247 -6.3473 11.2124
1 0.175922 -12.5102 -10.9971
2 10.6163 -6.35323 11.1546
3 -5.41968 -3.19867 15.3676
3 -5.57038 3.09458 -15.3725
3 16.2429 1.64389 2.17824
3 6.9711 14.9455 -2.20772
3 -9.38721 13.0325 2.12298
1 -16.3492 -1.62356 -2.32541
3 -6.89711 -14.6575 2.46035
3 9.32793 -13.2403 -2.09273
2 14.8724 0.842483 4.33778
2 6.72201 13.3662 -4.4851
2 -8.08218 12.218 4.19793
1 -14.8539 -0.695124 -4.28468
2 -6.67025 -13.2221 4.75827
1 7.74971 -12.5896 -4.30421
2 13.4294 -0.0172978 6.7413
2 6.7949 11.6723 -6.65428
2 -6.67585 11.5969 6.41373
3 -13.3925 0.0295346 -6.52279
2 -6.66711 -11.8267 6.94128
2 6.55209 -11.5839 -6.41815
1 12.0602 -0.805393 8.7562
2 6.76829 10.1871 -8.75321
3 -5.34019 10.8474 8.65949
2 -12.0398 0.590226 -8.8448