2739
 Atoms. Timestep: 6000
2 -0.0127133 0.0323171 0.0353249
3 2.6396 -0.0682688 -0.131459
2 1.159 2.27085 0.00244615
3 -2.7029 -0.32307 0.105186
2 -1.17813 -2.4152 0.136114
2 1.60229 -2.43446 0.174349
1 1.30114 -0.796511 2.23838
3 0.0309981 1.5691 2.26155
2 -1.20958 -0.634912 2.18133
2 0.0829309 -1.69804 -2.19668
3 1.20248 0.718059 -2.2731
2 -1.59661 0.794179 -2.01305
2 5.22111 0.107054 0.247762
2 2.60144 4.61203 0.187267
1 -2.62035 4.36829 0.117407
3 -5.3089 -0.194583 -0.0235667
1 -2.65461 -4.63975 0.129893
1 2.51047 -1.53901 4.45316
3 -0.0385212 3.17279 4.56368
2 -2.73376 -1.54858 4.51712
1 0.553776 -3.32877 -4.33775
1 2.47406 1.64782 -4.51774
2 -2.72062 1.44217 -4.36431
2 4.09753 2.37454 0.0945019
2 3.94956 -0.797186 2.2318
2 3.84623 0.75184 -2.3926
1 0.117776 4.59819 -0.259578
2 1.35772 3.78628 2.40246
2 2.36691 3.0172 -2.1289
1 -4.04217 1.99366 -0.0513039
2 -1.36556 3.91235 2.59741
1 -2.75281 2.90084 -2.22344
2 -4.00403 -2.50985 0.00698131
2 -3.96979 -0.916828 2.15937
3 -4.13922 0.627344 -2.15298
2 0.0343715 -4.71966 0.199547
2 -2.5955 -3.14487 2.17158
2 -1.25943 -3.87701 -2.26518
3 4.10431 -2.24331 0.070642
3 2.68878 -3.09217 2.36027
2 1.4534 -4.08081 -2.21858
1 1.30799 0.868136 4.41529
2 -0.28101 -1.62489 4.50418
1 -1.36976 0.774817 4.43051
1 1.56437 -0.884187 -4.45659
2 -1.39331 -0.919981 -4.39584
1 -0.198738 1.51276 -4.81208
2 2.74216 1.50386 2.1681
1 -0.166623 2.93481 -2.33857
1 -2.7777 1.46341 2.14163
1 -2.72569 -1.62253 -2.06453
3 -0.0726587 -3.19491 2.32124
3 2.63015 -1.5603 -2.19382
2 7.64941 0.06311 0.0637251
1 3.97913 6.83758 0.0724234
2 -4.14737 6.80916 -0.0548668
1 -4.03912 -7.0695 0.0732254
2 3.81563 -7.15878 -0.110618
1 0.195279 4.6531 6.67248
2 -4.26623 -2.33509 6.68625
3 0.297894 -4.627 -6.53155
2 4.24912 2.14131 -6.93245
2 -3.76337 2.02893 -6.56255
2 6.59893 3.06879 -0.022621
3 6.69454 -0.881123 2.17477
1 6.49131 0.775198 -2.19873
2 1.13268 6.84762 -0.177891
3 2.52063 6.44152 2.1303
3 3.80369 5.38068 -2.08191
2 -5.679 6.16377 2.07341
1 -2.81128 5.98478 2.24998
2 -6.60586 -2.55976 0.0622353
1 -6.89557 -0.910131 2.09975
2 -6.58839 0.777829 -2.18263
2 -3.98081 -5.36742 2.15918
2 -2.63536 -6.31026 -2.31009
1 5.34633 -4.60939 -0.130614
2 3.8281 -5.30229 1.93412
3 2.65866 -6.41358 -2.36921
1 2.60875 -0.00572839 6.55374
2 1.30932 -2.33089 6.49519
2 -1.32108 2.49024 6.69468
1 2.00725 -2.60448 -6.27969
2 1.40748 2.23913 -6.69173
1 5.11234 -1.23159 4.38456
3 4.99316 1.42178 -4.56445
2 -1.39697 6.79247 -0.102427
1 1.30213 5.36975 4.47314
1 3.89097 3.85314 -4.21187
1 -6.81915 2.1659 0.120862
2 -4.12427 3.76715 -4.43667
3 -5.33077 -4.72863 -0.021245
3 -5.3193 -1.54738 4.44376
3 -5.45403 1.63407 -4.65539
2 1.31343 -7.06605 0.28191
3 -3.99951 -3.81166 4.58918
1 -1.21417 -5.30929 -4.41083
1 6.63244 -2.36434 0.0319677
1 3.9558 -3.73316 4.61577
1 2.57526 -4.94476 -5.35986
2 1.41626 2.21211 6.63741
1 -1.47685 -2.2621 6.69155
2 -2.60145 0.205814 6.73872
2 -2.09101 -0.100469 -6.7219
2 5.2979 2.90681 -2.14231
2 0.0552749 6.01674 1.99707
1 -5.41247 2.88629 -2.19712
2 -0.00418009 -6.17599 -2.09704
2 5.26753 -2.99907 2.13892
1 -0.0313606 -0.00296643 6.67787
2 0.525842 -0.281845 -6.88884
1 5.31235 1.62165 2.31701
2 -4.21329 3.75555 2.30152
2 -5.30105 -1.67351 -2.2148
2 -1.32548 -5.58472 2.37193
1 1.1801 4.04139 -4.41132
2 -2.75442 3.26542 4.72161
2 -3.92042 -0.644298 -4.60268
2 -1.40822 -3.97807 4.54949
1 3.8773 -3.94453 -2.91219
2 4.03432 3.92539 2.22374
3 -1.47709 5.26919 -2.30959
2 -5.54489 1.4195 2.03156
3 -3.94446 -4.09352 -2.32627
2 1.33761 -5.56573 2.34119
1 5.25326 -1.70155 -2.23894
3 2.70632 3.04575 4.41935
3 -1.49387 3.92395 -4.42813
1 -4.23533 0.739863 4.27368
2 -2.81865 -3.05142 -4.47374
2 1.4249 -3.89897 4.38588
3 3.81998 -1.87427 -4.57112
1 5.33807 9.4025 0.00455415
3 -5.54868 8.99343 -0.174951
2 -10.7002 0.136035 0.0955893
2 -5.33587 -9.26875 0.0439466
1 5.26777 -9.48257 -0.0708119
2 5.07151 -3.04272 8.79688
2 -0.12439 6.34851 8.86491
2 -5.56385 -2.92311 8.91253
2 -5.22319 2.86053 -8.65102
2 9.13238 2.56107 0.0951336
2 9.408 -0.77767 2.0481
1 9.12626 0.778117 -1.93563
1 2.66233 9.22852 -0.222076
1 3.98153 8.44846 2.1244
2 5.10202 7.65598 -2.02981
2 -6.95131 6.83977 -0.156852
1 -4.03437 8.37991 2.07714
1 -5.62699 7.52323 -2.43752
3 -9.40658 -2.05554 0.0827596
2 -9.42162 -0.719168 2.38268
3 -9.45087 0.974153 -2.22501
3 -2.78505 -9.31688 -0.128112
1 -5.44662 -7.58085 2.21906
1 -4.08508 -8.58293 -2.15503
2 6.43933 -6.77529 0.0438499
2 5.03168 -7.67884 2.15741
1 4.05254 -8.46669 -2.3442
2 4.08547 -0.799108 8.79365
2 2.36285 -3.00963 9.02062
2 0.775006 -2.97801 -8.4503
2 3.04291 2.82132 -9.09959
1 7.78624 -1.6532 4.62618
3 7.97716 1.42431 -4.28801
3 0.00560174 9.12736 -0.020108
3 2.69707 7.88053 4.40259
2 5.33348 6.32641 -4.35785
3 -8.13111 4.35004 -0.0924047
1 -2.6237 7.79735 4.37818
1 -4.01847 5.47534 -2.19566
1 -8.10744 -1.48044 4.62471
2 -8.31825 1.73842 -4.37634
1 -0.149407 -9.38803 -0.0688637
1 -5.43547 -6.06181 4.45713
3 -2.78969 -7.83964 -4.52336
2 5.01461 -6.17845 4.25662
1 2.71165 -7.72362 -4.52657
3 2.70698 1.37844 8.7071
1 -0.0733449 -3.10858 8.80717
2 -2.80906 1.67833 8.97063
2 2.99822 -1.3643 -8.34959
2 -1.59787 -1.89104 -9.36961
3 -0.0506636 2.65619 -8.75441
2 6.61196 6.96175 0.254988
3 6.39237 -2.20466 6.64035
1 6.59239 2.23108 -6.40779
2 -2.80216 9.09291 -0.105731
3 1.293 6.90416 6.63674
1 5.44611 4.46534 -6.47191
2 -9.42888 2.30732 0.117331
1 -1.1777 6.94239 6.56243
2 -5.25949 4.43839 -6.61748
1 -6.6502 -6.88371 -0.0527898
2 -6.7551 -2.16745 6.56197
3 -6.70055 2.28489 -6.62557
2 2.7262 -9.52984 -0.140746
3 -5.52182 -4.59765 6.59706
1 -1.2939 -6.86867 -6.66376
1 5.24264 -4.66469 6.55426
3 1.38106 -7.11444 -6.525
2 1.14589 3.70272 8.74897
2 -2.57743 -3.11715 8.66316
3 -4.13864 -0.797918 8.76109
3 4.69019 0.555726 -9.08415
2 -3.55446 0.319231 -8.83817
3 -2.45962 2.82076 -8.8517
3 7.92359 3.09031 -2.12077
1 1.31161 8.58585 2.25993
2 -8.23329 -3.14698 2.06794
2 -1.17366 -8.61489 -2.0809
1 6.56006 -5.37775 2.04665
1 1.31103 -0.62658 8.82212
1 -0.805727 -2.369 -6.70852
2 6.42202 3.68007 -4.30334
3 0.0349933 7.82665 4.45185
2 -6.5921 -3.73202 4.22454
2 -0.0807476 -7.63395 -4.54568
2 6.54716 -4.0962 4.30041
1 -1.47678 -0.665054 8.9183
3 -0.963148 0.422135 -8.90792
3 8.03736 1.68727 2.23666
2 2.47667 7.60042 -2.36579
2 -7.90643 -1.58211 -2.06724
1 -2.69513 -7.93916 2.17787
3 5.30128 -6.19616 -2.17615
1 6.74568 0.699543 4.45601
1 2.61596 6.27382 -4.41576
1 -3.92678 5.39248 4.31638
2 -6.80506 -0.695317 -4.40335
3 -2.76552 -6.25443 4.2488
2 5.10509 -0.019142 6.6723
3 2.70609 4.42706 -6.5364
1 -2.59177 4.60959 6.66927
1 -5.43657 -0.0541064 -6.69018
2 -2.79834 -4.80203 6.49576
1 4.10224 -6.4807 -6.71122
2 6.55843 5.19524 -1.86087
1 -1.36258 8.40662 2.11551
3 -7.97858 2.96646 -2.09149
2 -6.72053 -5.44531 2.03499
1 1.33551 -8.67851 -2.17628
1 7.96713 -3.14999 2.27098
3 -0.0910026 1.43675 8.75372
2 1.75725 0.712511 -8.74139
1 6.86078 3.93481 2.21751
3 -0.113684 7.63615 -2.31734
3 -6.75863 3.76388 2.2361
3 -6.73656 -4.05984 -2.27426
3 -0.137378 -7.80666 2.18204
3 6.41766 -3.81186 -2.22256
2 5.20898 2.95221 4.66915
3 -0.0987281 6.19784 -4.56266
1 -5.67994 3.19079 4.30281
1 -5.49649 -3.02347 -4.40702
2 5.80731 -4.84757 -4.46701
3 3.89807 2.32827 6.71918
1 -0.0364319 4.46043 -6.81002
1 -4.10971 2.52624 6.62012
1 -3.71244 -2.06078 -6.65563
2 0.0478075 -4.91675 6.47
2 5.67792 -2.88927 -6.18347
2 5.19416 6.10297 2.31298
2 -2.75532 7.77456 -2.38392
2 -8.19649 1.63314 2.32188
3 -5.35966 -6.26899 -2.16687
1 3.84437 -10.0382 2.10671
1 8.00912 -1.72144 -1.90157
2 3.80858 5.53748 4.22205
2 -2.73798 6.11522 -4.27565
3 -6.777 0.887357 4.24673
2 -3.82017 -5.44513 -4.44803
2 6.33802 -0.879665 -4.53325
2 -2.69912 4.47354 -6.57748
1 -5.65004 0.00290374 6.59099
3 -2.5715 -4.58558 -6.57883
1 2.67384 -4.59524 6.6848
1 5.28642 -0.266127 -6.60972
2 13.1643 -0.149765 0.22825
3 6.87669 11.7132 0.107405
2 -6.76974 11.4793 -0.336053
2 -13.215 0.161963 0.165181
2 -6.80181 -11.5769 -0.0890782
3 6.59832 -11.6757 -0.145163
2 6.51813 -4.04871 10.8517
1 -0.292233 7.71162 11.1312
2 -6.87044 -3.79492 11.0127
1 -0.167803 -7.66792 -10.8609
2 6.73888 3.91873 -10.7755
2 -6.31151 3.81999 -10.7402
3 12.1044 2.33057 0.110282
2 11.9289 -0.722755 2.47429
2 11.678 0.803409 -1.84666
2 4.22146 11.7091 -0.0465402
2 5.32454 10.9829 2.21808
1 6.68616 10.0882 -2.13121
1 -8.14898 9.32069 -0.30902
1 -5.42025 10.7166 2.01025
3 -6.76662 9.91006 -2.37435
2 -11.9569 -2.25677 0.0848255
2 -12.0883 -0.684029 2.40866
1 -11.9685 1.02378 -2.16389
2 -4.05098 -11.5266 0.0264305
1 -6.86747 -9.87874 2.33724
2 -5.54417 -10.6984 -2.26029
1 7.84017 -9.23798 0.0374402
2 6.56727 -10.1046 2.08594
2 5.33001 -10.7924 -2.29476
2 5.18757 -1.40151 11.0632
2 3.79868 -4.01416 10.8737
1 -1.28303 5.34746 10.9913
2 -1.30281 -5.57258 -10.9764
1 10.5345 4.63059 0.262464
3 10.5048 -1.60481 4.42335
3 10.5021 1.49785 -4.07557
1 1.29877 11.5895 0.0109048
1 4.10087 10.0569 4.2048
1 6.62819 8.43546 -4.71396
2 -9.60092 6.98972 0.0492767
1 -3.9747 10.0155 4.2572
2 -6.65243 8.50095 -4.33949
3 -10.649 -1.52854 4.47385
3 -10.7805 1.36457 -4.40126
3 -1.37668 -11.6706 -0.00824611
2 -8.17231 -9.16576 6.53702
2 -3.90324 -10.0112 -4.27286
1 9.18812 -6.8221 -0.0605911
1 6.54421 -8.66806 4.46793
2 3.9778 -10.1541 -4.52686
3 4.00491 1.14622 11.0855
3 1.38686 -3.86718 11.1682
2 -2.63369 3.17243 11.0142
2 2.56257 -3.97873 -10.1982
2 -2.74655 -3.52149 -11.1752
2 1.37515 3.58788 -10.9353
1 9.23115 6.82995 0.147466
2 9.25905 -2.37108 6.64113
2 9.17666 2.1771 -6.35866
2 -1.47845 11.6003 0.0294757
3 2.82368 9.43242 6.5321
1 -10.8781 4.35675 0.0225763
1 -2.64372 9.26904 6.74042
2 -6.71666 6.89611 -6.43961
1 -9.38291 -6.87532 -0.176637
1 -9.14771 -2.71237 6.76112
1 -9.37283 2.28841 -6.66722
3 1.45959 -11.9175 -0.0818968
1 -6.8169 -6.90688 6.63941
2 -2.59143 -9.40329 -6.63491
1 10.4359 -4.54654 0.127325
2 6.34254 -7.05124 6.38337
2 2.6959 -9.4484 -6.56397
1 -1.2744 -3.91793 11.1706
2 -3.80016 0.52514 11.0065
2 -3.80338 -0.974668 -11.0251
2 -1.18805 3.6464 -11.0601
1 8.0721 9.34066 0.335465
2 7.89529 -3.18937 8.84952
3 8.09167 3.23275 -8.67097
2 -4.29783 11.4344 -0.203229
1 1.30332 8.70575 8.75702
2 6.73964 5.33267 -8.6607
2 -1.24554 8.77489 8.92645
3 -6.7675 5.29313 -8.71361
3 -7.97107 -9.19273 0.0642509
3 -1.32893 -8.48977 -8.72846
2 6.48623 -5.50972 8.66183
1 1.15716 -8.34312 -8.67084
2 1.06703 5.57905 11.0084
2 -3.90447 -3.71221 10.9666
2 -5.22397 -1.39455 11.1741
1 5.33822 2.09237 -11.0904
2 -5.19633 1.27545 -10.8885
1 -3.50818 4.15295 -10.8894
1 10.6182 3.10315 -1.92724
3 2.79394 10.9252 2.10645
1 -6.7113 5.18191 -2.08127
1 -2.63084 -10.9238 -2.26436
3 2.48176 -1.3746 11.0236
2 -0.0187216 -3.25645 -10.9525
1 9.3884 3.65619 -4.24615
2 1.59438 10.1742 4.34885
2 -9.31297 -3.74023 4.50753
2 7.94257 -6.18935 4.40764
3 0.133307 -1.48736 10.9955
2 8.02821 4.3728 -6.37071
2 0.152758 9.24577 6.6088
2 -8.17602 4.44055 -6.77764
3 0.115523 -9.16091 -6.47976
3 7.87193 -4.74473 6.43901
2 -2.46994 1.23517 -11.0419
3 10.5139 1.54919 2.3906
3 4.01309 9.95658 -2.18142
2 -6.93639 8.61719 2.20667
2 -10.6055 -1.30041 -2.08577
2 -4.24723 -10.0018 2.185
1 6.71787 -8.45449 -2.35745
2 9.19068 0.596897 4.43342
1 3.99527 8.492 -4.35955
3 -5.3016 7.76648 4.18312
2 -9.4517 -0.769759 -4.29156
1 -4.16909 -8.52525 4.48543
1 5.3069 -7.57177 -4.61947
3 8.00809 -0.0109646 6.69045
2 4.05758 6.86931 -6.72334
1 -4.02324 6.93982 6.48393
2 -8.06495 0.0730753 -6.67885
1 -4.10445 -7.00346 6.56646
1 6.61014 -0.768141 8.74808
2 4.13661 5.35962 -8.78601
1 -2.7168 6.21834 8.76927
1 -6.61708 0.761232 -8.78295
2 -4.19959 -5.22564 8.70519
2 2.24649 -5.72445 -8.40143
3 9.22389 5.35561 -2.07013
2 0.0654519 10.7295 2.05538
2 -9.30918 5.39652 -2.104
1 9.11445 -5.7295 2.24475
3 1.33879 0.877356 10.984
2 1.84478 -1.22889 -10.7926
2 7.79941 5.89375 -4.15187
2 -1.23703 10.1236 4.43794
3 -7.9355 -6.0319 4.29083
2 9.30317 -3.74308 4.17333
2 -1.2855 0.714748 11.1025
2 0.21112 1.22046 -10.9164
2 9.35317 3.88201 2.46828
2 1.25568 9.94993 -2.28132
2 -8.22074 6.04378 2.06674
2 -9.28155 -3.86624 -2.03034
3 -1.42632 -10.1907 2.1421
2 7.72462 -6.07938 -2.29093
2 8.00435 2.96162 4.54699
1 1.29069 8.49278 -4.51101
2 -8.0151 -3.14566 -4.41644
3 -1.31368 -8.68476 4.22072
2 6.79644 2.30888 6.74964
2 1.30759 6.78501 -6.71892
2 -5.60598 4.67821 6.5973
2 -6.65159 -2.34254 -6.61013
1 -1.35421 -7.07894 6.42932
3 5.36898 1.61811 8.76375
2 1.37594 4.95006 -8.7071
3 -4.08217 3.9215 8.84366
3 -5.25102 -1.68123 -8.89331
2 -1.27421 -5.38678 8.65355
1 3.93302 -3.79094 -7.76069
2 7.69547 7.69214 -2.12871
3 -2.56321 10.7716 2.15585
1 -10.6276 3.39742 -2.73152
3 -8.09498 -7.54776 2.17963
2 2.58631 -10.861 -2.40332
2 10.6905 -3.11388 2.16561
3 0.00200754 3.24239 11.0053
2 3.10643 0.978724 -11.0974
2 8.02179 6.35612 2.37304
2 -1.45201 9.97129 -2.20866
3 -9.58094 4.02331 2.1616
3 -8.0622 -6.1631 -2.17907
2 1.09706 -10.0054 1.94571
2 9.32307 -3.90673 -2.01562
2 6.51463 5.48152 4.3508
2 -1.34275 8.48624 -4.57708
2 -8.28811 3.20038 4.29369
2 -6.82146 -5.59501 -4.49248
2 1.27575 -8.56163 4.2082
1 7.80535 -2.99532 -4.3122
1 5.02279 4.81829 6.56256
2 -1.47694 6.78254 -6.74957
2 -6.6873 2.31576 6.48473
1 -5.24966 -4.64142 -6.57859
1 1.17044 -6.96558 6.04731
2 3.88241 3.82286 8.77748
2 -5.46645 1.57756 8.91117
2 -3.95043 -3.81867 -8.61186
1 1.31436 -5.67161 8.59466
2 5.41107 -1.96902 -8.56898
2 6.60377 8.59941 2.13072
1 -4.266 9.92022 -2.34018
1 -6.79802 -8.57154 -2.38136
1 10.6052 -1.50633 -1.88537
2 5.37834 7.83359 4.3767
3 -4.13244 8.42238 -4.48071
2 -9.51544 0.747398 4.59184
2 -5.46356 -7.8287 -4.32754
3 3.92134 -8.60558 4.42092
1 9.19882 -0.764878 -4.20419
2 3.85005 6.95198 6.70844
2 -4.08311 6.89776 -6.73895
2 -4.01504 -6.7484 -6.71181
3 3.73949 -7.08623 6.23139
3 7.8897 -0.0584929 -6.31506
2 2.54997 6.08523 8.77949
1 -1.82837 5.09625 -9.03442
2 -6.82573 -0.571988 8.83645
1 -2.86689 -6.32759 -8.85267
3 3.87656 -5.41895 8.74032
2 16.072 -0.114224 0.32752
2 -8.20544 14.2681 -0.128983
2 -16.2205 -0.136337 -0.0592368
3 7.94341 -13.7973 -0.152365
1 8.07907 -5.03684 13.324
2 -0.0618821 9.42092 12.9387
2 -8.26195 -4.54919 13.0119
1 -0.00229108 -9.2818 -13.106
3 -7.66352 4.36331 -12.8546
1 14.6047 2.16919 0.121298
1 14.8158 -0.653984 2.42681
2 14.6559 0.575759 -1.94289
2 8.07206 12.5746 -1.8801
1 -9.52964 11.7584 -0.207478
1 -6.72496 13.2165 2.05635
3 -14.6749 -2.45649 0.0858238
2 -14.7874 -0.637982 2.12568
2 -14.8296 0.786577 -2.28641
1 -5.50985 -13.9421 -0.0898075
3 -6.76531 -13.1137 -2.3203
3 9.42626 -11.3784 -0.104497
2 8.0462 -12.2674 2.05369
3 6.52049 -12.9979 -2.21774
2 6.65436 -2.44922 13.1329
1 5.4105 -4.76119 12.9484
3 1.24775 -7.1164 -13.0279
3 -1.44654 -7.06651 -13.1246
2 13.4013 4.54968 0.133027
1 13.2534 -1.69972 4.40856
2 13.1437 1.48201 -3.99601
3 2.68481 13.8224 -0.193341
2 5.45673 12.5622 4.51486
1 7.98744 10.8982 -4.35903
2 -10.8326 9.2606 0.00668476
1 -5.15122 12.4429 4.36423
1 -8.28058 11.0501 -4.3279
2 -13.2852 -4.52058 -0.0328244
1 -13.4436 -1.34137 4.64371
3 -13.4041 1.5105 -4.39817
2 -2.701 -14.0062 -0.0728999
3 -7.95076 -10.9741 4.30934
2 -5.44652 -12.3194 -4.3808
3 10.4674 -9.18732 -0.140206
2 8.04111 -10.9644 4.33095
3 5.28957 -12.375 -4.35795
3 5.41599 -0.236986 13.4377
3 2.87226 -4.758 13.1789
1 -2.53847 4.60952 13.1791
2 2.61955 -4.80383 -12.6937
2 -2.81126 -4.85641 -13.3187
3 2.72 4.469 -13.1284
2 11.8491 7.17402 0.0246505
3 11.9987 -2.28478 6.6196
2 12.005 2.24128 -6.32463
2 -0.156488 13.7752 -0.114939
1 4.245 11.7692 6.73399
2 8.18407 9.19981 -6.57851
2 -12.2363 6.95622 0.125339
1 -3.80469 11.5555 6.52384
2 -7.98629 9.22756 -6.57042
2 -11.9939 -6.90087 0.158182
2 -12.1125 -2.17716 6.66264
1 -12.1009 2.27849 -6.65571
2 -0.0347469 -13.9587 -0.152442
1 -3.98549 -11.6798 -6.49892
3 11.8421 -6.95082 0.159521
2 7.98119 -9.40585 6.47591
3 3.93724 -11.7382 -6.46746
1 3.85429 2.36968 13.363
3 0.235528 -4.85132 13.177
2 -3.94378 2.37865 13.1627
1 3.71052 -2.42585 -12.8058
2 0.211243 4.45183 -13.1807
1 10.7433 9.33662 0.0790886
2 10.6564 -3.03833 8.78614
2 10.596 3.02283 -8.68882
2 -2.78183 13.9101 -0.133559
3 7.97799 7.56788 -8.82605
2 -13.6289 4.52225 0.123335
3 -2.61821 10.8273 8.84092
1 -7.99152 7.84395 -8.69412
2 -10.6934 -9.33701 0.0385314
2 -10.7524 -3.17444 8.78593
3 -10.7734 3.24473 -8.71096
3 -2.67114 -10.8777 -8.8144
2 13.2219 -4.50756 0.17383
1 7.92086 -7.95755 8.62845
3 2.51666 -11.0097 -8.67751
3 2.65447 4.73573 13.2094
1 -2.51353 -4.67525 13.296
2 -5.14449 7.80356e-05 13.3181
1 5.06617 0.0397969 -12.7655
2 -5.21378 -0.365548 -13.2126
2 9.56626 11.4923 0.0103215
2 9.28547 -4.12225 10.9667
3 9.44727 3.85106 -10.8532
2 -5.47719 14.0662 0.141478
2 1.38811 10.0962 10.9732
2 8.16464 6.06362 -10.8695
2 -14.8662 2.16372 0.0884548
3 -1.31198 10.1865 10.8743
2 -7.80703 6.07073 -10.9543
3 -9.37659 -11.6931 0.0296446
2 -9.71201 -3.91381 10.8829
1 -9.02571 3.91227 -10.6861
1 5.25789 -13.9026 -0.142671
2 -8.17341 -6.2433 10.736
1 -1.47704 -10.021 -11.0063
2 14.7737 -2.21236 0.404842
3 7.81791 -6.38323 10.8424
2 1.276 -9.89011 -10.7718
2 1.3401 6.98791 13.0963
2 -5.54649 -4.63414 13.1693
2 -6.74159 -2.2902 13.3321
1 6.50331 2.64684 -13.2392
1 -6.49694 2.26537 -13.0808
2 -5.08044 4.52751 -12.9853
1 13.1837 3.31506 -2.08565
2 3.90258 13.2442 2.06166
2 -9.43719 10.1387 -2.1957
2 -13.1645 -3.10775 2.3598
2 -4.21775 -13.1147 -2.31341
2 9.32387 -10.0197 2.07143
3 4.03517 -2.42579 13.0273
2 -0.0265419 -4.90031 -13.3374
2 12.3032 4.11691 -4.37674
2 2.77008 12.2597 4.37459
2 -9.32041 8.74874 -4.36379
2 -11.9818 -4.06075 4.61228
2 -2.85709 -12.4582 -4.42216
2 9.45576 -8.68097 4.19272
3 1.47371 -2.5235 13.3662
3 -1.31872 -2.74739 -13.2922
1 10.7273 4.57817 -6.54665
2 1.43525 11.6646 6.74067
2 -9.37507 6.59139 -6.23903
1 -10.6823 -4.85678 6.59228
1 -1.26749 -11.6934 -6.36447
2 9.29119 -7.09432 6.51305
3 -1.16526 -2.44966 13.5311
2 -2.43887 -0.28092 -13.2278
1 9.32039 5.35561 -8.68436
3 0.0873099 10.8807 8.82464
2 -9.4576 5.56665 -8.72154
2 -6.65738 -5.26403 8.81525
2 -0.0792102 -10.8021 -8.54098
2 9.16999 -5.57384 8.6852
2 -3.89924 -2.49077 13.4805
1 -3.79447 2.1228 -13.1539
3 13.1988 1.57778 2.21856
1 5.46464 12.6395 -2.2116
1 -8.07106 10.8955 2.12783
1 -13.264 -1.32952 -2.08512
2 -5.50946 -12.391 2.07966
1 7.96703 -10.7436 -2.19803
1 12.101 0.767858 4.47186
3 5.30316 10.7645 -4.25803
1 -6.68052 10.126 4.4599
2 -11.9977 -0.905137 -4.69429
1 -5.35464 -10.7569 4.30164
2 6.75971 -9.98419 -4.46357
2 10.6203 -0.0524715 6.67718
2 5.34788 9.20843 -6.6165
2 -5.46446 9.30737 6.64755
2 -10.7102 0.0140011 -6.68679
3 -5.46418 -9.2674 6.53218
1 5.29433 -9.21303 -6.81226
2 9.21601 -0.869437 8.86463
1 5.36665 7.59521 -8.76616
3 -4.14387 8.52199 8.57108
3 -9.23862 0.474438 -8.90697
2 -5.28711 -7.60663 9.0018
3 3.88255 -8.38976 -8.75828
2 8.06353 -1.53866 10.9988
2 5.43456 6.14816 -11.2382
2 -2.79243 7.84903 10.7375
2 -7.82996 1.48105 -10.9207
3 -5.33048 -6.05251 10.9347
1 2.61869 -7.05854 -10.5995
2 11.8692 5.62517 -2.27113
2 1.27166 13.0082 2.03431
2 -10.7054 7.65284 -2.22298
2 -10.5297 -4.35261 0.19822
2 -1.42687 -13.0671 -2.16958
1 10.6873 -7.78298 2.07164
2 2.80107 0.0457512 13.1536
3 1.32572 -2.60313 -13.0465
1 11.2372 6.64292 -4.61387
2 0.273622 12.4992 4.40886
1 -10.5286 5.80577 -4.18402
1 -10.5326 -5.87841 4.08029
3 -0.0260769 -10.839 -2.46557
2 10.6958 -6.29642 4.55985
2 0.206392 -0.156205 13.1794
1 -0.0319313 -0.370508 -12.7906
1 9.12598 6.88042 -6.50122
2 -1.17628 11.4673 6.76845
2 -10.7896 4.33635 -6.28799
1 -9.48959 -7.114 6.51917
2 1.25006 -11.7728 -6.51722
2 10.7349 -4.62948 6.5909
2 -2.47624 -0.130046 13.305
2 -1.34201 2.22057 -13.2533
2 11.9409 3.72866 2.08904
3 2.813 12.1621 -2.15699
2 -9.48835 8.49003 2.25786
3 -11.9359 -3.8564 -2.09068
3 -2.90926 -12.3879 2.21565
2 9.29965 -8.04918 -2.14225
2 10.6614 3.01081 4.49552
1 2.53275 10.7295 -4.4428
3 -8.25735 7.81674 4.40882
3 -10.5137 -3.11995 -4.09803
2 -2.64679 -10.8346 4.33279
3 7.76829 -7.73146 -4.52688
3 9.44089 2.27287 6.68939
1 -6.64487 7.01325 6.45804
2 -9.2819 -2.26885 -6.67464
3 -2.86232 -9.31636 6.4406
1 6.57048 -6.73002 -6.81773
2 7.97813 1.42446 8.92944
3 2.64087 7.43177 -8.87456
1 -5.48204 6.2355 8.75222
1 -7.86292 -1.70319 -8.92192
1 -2.70601 -7.93242 8.89988
2 6.59407 0.744932 11.1
2 2.67239 6.06233 -10.9935
3 -4.04457 5.43972 10.9107
3 -6.46951 -0.849435 -11.0311
2 -2.64786 -5.99431 10.9287
1 10.3868 7.68749 -2.07921
2 -1.40095 13.0464 2.10923
2 -12.0919 5.39757 -1.96801
2 -10.5109 -7.56373 2.13408
2 1.32816 -13.3069 -2.33353
2 11.9955 -5.49438 2.41971
2 1.34446 2.25315 13.2403
2 2.53412 -0.0854115 -13.2377
2 9.10472 8.22357 -4.24953
2 -2.49416 12.3128 4.47522
3 -9.48705 -8.5539 4.15823
2 2.5231 -12.6801 -4.44775
2 12.0394 -3.89797 4.46913
3 -1.26569 2.26854 13.1151
3 1.32225 2.07678 -12.9863
2 10.7865 6.2671 2.24081
3 0.0746118 12.2747 -2.16401
3 -10.8146 6.29546 2.24366
2 -10.6749 -6.19119 -2.18266
2 -0.225458 -12.4743 2.12699
2 10.7668 -6.11801 -2.15458
1 9.46765 5.69766 4.47556
2 -0.134225 10.7914 -4.23255
3 -9.59967 5.51055 4.18474
2 -9.35544 -5.43756 -4.27485
2 -0.00770536 -10.8992 4.16379
3 9.15193 -5.37884 -4.16985
2 8.26112 4.71031 6.57517
2 -0.0512957 9.42476 -6.58479
1 -8.131 4.67579 6.38353
2 -8.11458 -4.83736 -6.53592
2 -0.317966 -9.34677 6.58755
2 7.86459 -4.69203 -6.5328
2 6.8015 3.96751 8.69458
2 -0.0563987 7.34391 -8.7318
1 -6.90841 3.82571 8.63539
2 -6.69079 -4.02913 -8.74775
2 -0.112482 -7.92744 8.86987
3 6.23985 -4.70098 -8.54474
2 -0.0569264 6.05624 -11.0334
2 -5.48307 3.38922 11.0246
2 -5.43297 -3.17856 -11.1916
3 0.045635 -6.22483 10.8384
2 5.09617 -3.32927 -10.7144
2 9.34781 10.1774 -2.38896
1 -3.97032 13.1124 2.21082
2 -13.3883 3.15354 -2.24259
2 -9.25134 -10.0174 2.04673
3 3.76401 -13.2193 -2.34885
3 13.2169 -3.17199 2.28512
2 -0.0530635 4.6496 13.2873
3 9.42819 8.55316 2.38002
3 -2.72204 12.164 -2.23204
3 -12.0856 3.89505 2.03739
3 -9.49526 -8.50441 -2.13403
3 2.63446 -12.2833 2.01847
1 12.1409 -3.83974 -2.3411
3 7.93388 7.87115 4.40669
1 -2.8523 10.7541 -4.48911
2 -10.8474 3.11544 4.30943
3 -8.1951 -7.83061 -4.40267
2 2.67081 -10.7599 4.1293
1 10.4543 -3.24627 -4.11721
2 6.63517 6.92045 6.54081
2 -2.63339 9.35832 -6.66921
1 -9.53926 2.33287 6.43563
3 -6.63069 -7.24081 -6.64484
3 2.37451 -9.22695 6.63469
1 9.08118 -2.28542 -6.48013
2 5.18087 6.1711 8.82861
3 -2.6943 7.84277 -8.8565
1 -8.27837 1.53253 8.60687
3 -5.51951 -6.29046 -8.884
2 2.63752 -7.94452 8.74065
3 7.87085 -1.44261 -8.58384
3 3.82638 5.32109 10.9379
2 -6.68944 0.849889 11.2256
1 -4.31634 -5.50767 -11.1477
2 2.50647 -6.14656 10.7769
2 6.50285 -0.789083 -10.7352
2 7.87106 10.8405 2.4775
1 -5.70646 12.3597 -2.39761
3 -13.4864 1.67736 2.48777
3 -7.94918 -10.8321 -2.29509
2 5.45041 -12.5242 2.08627
2 13.147 -1.60361 -1.8198
3 -5.47245 10.9311 -4.71864
2 -6.85023 -10.0707 -4.48917
3 5.29274 -10.8797 4.14413
1 5.48442 9.48608 6.53444
2 -5.34682 9.37229 -6.71962
2 -11.1692 0.224427 6.34821
2 -5.30251 -9.37345 -6.7188
2 5.15657 -9.43326 6.5344
1 10.6642 0.0601008 -6.32581
2 3.80117 8.67692 8.65218
2 -5.32204 7.96718 -9.02307
2 -9.57783 -0.70898 8.3577
1 -3.99052 -8.65211 -8.89269
3 5.22403 -7.92468 8.60228
2 9.1851 0.86929 -8.67598
2 2.62174 7.78639 10.9321
2 -4.98286 6.14457 -10.9338
2 -8.24526 -1.6124 10.8535
3 -2.70136 -7.65107 -10.9752
2 5.07694 -6.50232 10.7621
2 7.96173 1.71248 -10.919
3 18.6295 0.0579941 0.162049
3 9.13249 16.0386 -0.0326951
2 9.12942 -16.2089 -0.337728
1 9.79231 -4.94567 15.4754
2 0.629197 11.2018 15.3391
2 -9.61889 -5.42753 15.3891
3 9.47849 5.41975 -15.2719
3 -9.48112 5.38442 -15.2581
1 17.8168 -1.06445 2.32518
2 6.65814 15.4917 -0.0294547
2 7.84112 15.4201 2.08143
1 9.61543 14.5288 -2.19198
3 -10.8562 14.2132 -0.00898313
2 -7.97446 15.5046 2.28184
3 -9.44854 14.4142 -2.41932
3 -17.5027 -0.598183 2.19891
2 -17.4245 0.658236 -2.30972
2 -6.68353 -16.1348 0.101949
3 -9.46136 -14.8632 2.14764
2 -8.21608 -15.4012 -2.27798
1 10.5985 -13.7326 -0.262819
2 9.53352 -14.5406 2.09494
2 8.01398 -15.2371 -2.2832
2 8.67783 -3.14326 16.318
1 7.31286 -5.2074 15.7892
1 -1.50367 8.53417 15.3179
3 1.3782 -8.69654 -15.1182
3 -1.32232 -8.6946 -15.2477
2 6.86841 5.31289 -15.5764
2 16.1541 4.76769 0.154539
1 16.1155 -1.57462 4.70557
2 15.8428 1.30015 -4.26333
1 3.90765 16.0794 -0.0443654
3 6.73981 14.7492 4.35657
1 9.4187 13.073 -4.3857
2 -12.1117 11.7301 -0.0879875
2 -6.57239 14.7013 4.51965
3 -9.56828 13.3806 -4.54246
2 -16.1714 -4.43997 -0.00415567
2 -16.1624 -1.58627 4.24179
3 -15.875 1.53835 -4.55717
2 -4.19323 -16.2388 -0.148519
2 -9.35718 -13.1365 4.11959
2 -6.73811 -14.7584 -4.28282
3 12.2796 -11.6267 -0.377933
1 9.2263 -13.4014 4.36205
1 6.78005 -14.6484 -4.26162
1 6.82356 -0.805644 15.5886
2 4.60413 -5.28051 15.2347
1 -2.71237 6.17149 15.7632
2 2.6801 -6.36118 -15.2463
2 -2.68438 -6.39733 -15.2769
1 3.89435 5.40553 -15.3244
3 14.403 7.0042 -0.0814216
1 14.6197 -2.33335 6.63233
3 14.6522 2.19978 -6.34629
1 1.30897 15.9158 -0.290377
3 9.33847 11.5283 -6.58621
1 -5.39198 13.8485 6.61933
1 -9.51855 11.9979 -6.80204
3 -14.7694 -6.72 0.104749
2 -14.6793 -2.14644 6.63866
2 -14.5008 2.26326 -6.63724
2 -1.30896 -16.2454 -0.0572276
1 -9.26418 -11.5896 6.6382
2 -5.34076 -14.2446 -6.55644
2 13.3317 -9.09777 -0.0762409
3 9.08496 -11.7767 6.39277
2 5.41801 -13.9591 -6.26763
1 5.3288 1.41267 15.432
3 1.83098 -5.60419 15.1106
1 -4.00239 3.8674 15.8776
1 3.91656 -3.96389 -15.1277
2 -4.01314 -2.57993 -13.4022
3 1.35404 5.30122 -15.4195
2 13.3546 9.39129 0.0860758
1 13.2063 -3.34422 8.70896
2 -1.32455 16.2593 -0.0931305
3 4.05544 13.3472 8.77204
2 9.5387 10.0094 -8.73114
1 -14.8157 6.8571 0.275497
3 -4.03674 13.1227 8.59056
2 -9.50113 10.0032 -8.55319
1 -13.7726 -2.90859 8.9143
1 -13.3307 3.19132 -8.94672
3 1.18951 -16.2057 -0.18254
2 -9.48312 -9.94452 8.65271
2 -3.746 -13.2591 -8.92963
3 14.5143 -6.67996 0.172504
1 9.25 -10.19 8.40735
2 3.86666 -12.9875 -8.88258
3 3.92448 4.06344 15.3685
2 -5.33029 1.5197 15.3845
1 5.38725 -1.37229 -15.0104
3 -1.37836 5.34411 -15.1405
1 12.0557 11.5358 -0.0895887
2 12.0565 -3.96681 11.1293
2 11.8822 3.98148 -10.6631
3 -4.04881 16.3694 -0.314884
3 2.7305 10.952 8.84938
3 9.33658 8.56456 -11.0155
1 -16.176 4.73277 -0.0411057
3 -2.62664 12.3207 11.016
2 -9.26368 8.3758 -10.9022
3 -12.1934 -11.6725 -0.14054
3 -12.2145 -3.72158 10.7785
2 -11.7828 3.87922 -11.062
3 3.92219 -16.1046 -0.0121073
3 -9.35731 -8.57013 11.0242
2 -2.48639 -12.1722 -11.0342
3 15.9025 -4.66193 0.0658434
3 9.48395 -8.84259 10.8177
2 2.55081 -12.3376 -11.0077
2 2.61561 6.32696 15.2818
2 -4.03383 -5.12556 15.2502
2 -6.76329 -0.819955 15.4571
3 6.6292 0.953793 -15.3099
3 -6.60297 0.6338 -15.3229
3 -3.91607 5.26582 -15.2134
1 10.5284 13.7668 0.114376
3 10.7456 -4.87366 13.0795
3 10.6257 4.5758 -13.054
1 -6.73866 16.4158 0.1453
3 -17.4027 2.67284 0.0166483
2 -1.18275 11.7508 13.0003
1 -9.26487 6.90564 -13.2233
3 -10.7673 -13.841 -0.0775053
3 -10.9609 -4.45007 13.261
1 -10.7646 4.8155 -13.0722
3 6.47224 -16.0936 -0.0942442
2 -9.50302 -6.79267 13.135
3 -1.25195 -11.5475 -13.2656
1 17.3883 -2.3245 0.0504064
2 9.31483 -7.342 13.0229
2 1.30301 -11.5154 -13.2555
2 1.09393 8.46242 15.318
1 -6.38647 -5.80798 15.4381
1 -8.27146 -3.24406 15.1324
2 8.00346 3.09347 -15.3319
3 -7.86912 3.07523 -15.2134
3 -6.6667 5.36406 -15.0888
2 16.0263 2.8255 -1.88358
2 5.23805 15.4521 2.19144
3 -10.9803 12.4157 -2.3675
1 -16.0699 -3.01675 2.25529
3 -5.40536 -15.4514 -2.21646
2 10.8229 -12.1561 1.91588
1 5.58966 -2.93208 15.367
1 -0.0794351 -6.39935 -15.4118
2 14.7716 3.78568 -4.24609
2 3.91348 14.7225 4.26268
1 -10.9124 10.9811 -4.68579
3 -14.6803 -3.79148 4.59126
1 -4.07026 -14.7534 -4.37952
3 2.86305 -3.36916 15.2138
1 -1.43383 -4.25056 -15.4295
1 13.1014 4.12134 -7.56503
3 2.73485 13.9471 6.38172
3 -10.5679 8.90228 -6.44801
1 -13.5345 -4.46312 6.73795
3 -2.72491 -14.2288 -6.57844
3 10.4548 -9.33045 6.36981
2 11.8861 6.04789 -8.69099
1 -10.833 7.96057 -8.90334
1 -12.1577 -5.48797 8.7934
2 10.4213 -7.97925 8.5835
3 0.0290777 -3.3016 15.5562
3 -3.87041 0.670295 -15.3372
3 10.6457 6.42395 -10.8939
3 0.107636 12.4612 11.0041
2 -10.5437 6.12412 -11.0604
2 -10.8979 -6.09177 10.8312
1 -1.29738 -13.0855 -8.8181
2 10.6207 -6.48727 10.966
3 -5.48135 -3.0584 15.5412
3 -5.14252 3.02879 -15.1754
3 -9.46044 13.2925 1.99799
1 -16.2364 -1.67164 -2.04755
3 -6.93084 -14.5228 2.1396
3 9.38448 -13.0742 -2.42503
2 14.7773 0.646673 4.43808
2 6.84493 13.2417 -4.42976
2 -8.00515 12.3662 4.57195
1 -14.5969 -0.787477 -4.3851
2 -6.80763 -13.1653 4.45756
1 8.04513 -12.3504 -4.47078
2 13.321 -0.15511 6.78384
2 6.544 11.5859 -6.48009
2 -6.73338 11.6468 6.95805
3 -13.3612 -0.0419966 -6.69005
2 -6.66239 -11.5664 6.54208
2 6.56692 -11.4496 -6.61205
1 11.8676 -0.778709 8.81993
2 6.73491 9.93248 -8.76105
3 -5.1595 10.8362 8.71535
2 -12.0409 1.0149 -8.96229
1 -6.5701 -10.1453 8.7741
3 5.26484 -10.6889 -8.84202
3 10.6523 -1.64688 11.0655
2 6.86207 8.37366 -11.1433
3 -4.15212 10.0307 10.9038
2 -10.4503 1.5945 -10.9134
1 -6.56328 -8.43517 11.0272
2 3.82564 -10.0066 -10.7931
2 9.64518 -2.63129 13.5896
2 8.12207 4.70934 -13.315
1 -2.69842 9.23039 13.0005
1 -9.35788 2.30745 -12.9925
3 -6.88345 -6.90219 12.989
2 2.65814 -9.33034 -13.0327
1 15.1536 5.7084 -2.3522
2 2.55298 15.4166 2.05258
2 -11.905 9.95853 -2.3437
1 -14.7152 -5.36807 2.27571
2 -2.76342 -15.5367 -2.18425
2 3.9588 -1.00205 15.3301
1 1.20338 -3.87937 -15.3533
2 13.8274 6.21171 -4.21056
2 -12.216 8.56058 -4.47836
2 -13.4494 -6.21834 4.45624
2 -1.47543 -14.4084 -4.3794
3 11.9309 -8.83202 4.21895
2 0.165818 -1.52627 -15.0878
2 0.1665 13.9094 6.47153
2 -11.8983 6.84796 -6.61146
2 -12.0716 -6.92216 6.66824
1 0.0750863 -14.1435 -6.33583
3 12.0098 -7.1262 6.62931
1 -0.963009 -0.853907 15.7585
1 -1.47048 13.0229 8.96137
1 -12.0282 5.62172 -8.90753
2 -7.89126 -7.74479 8.68924
2 1.09762 -13.2654 -8.57647
3 11.8463 -5.63967 8.85994
3 -3.89873 -0.745609 15.4673
3 -2.46085 2.78959 -15.4327
3 14.6556 3.73678 2.17787
1 3.91881 14.6218 -2.3896
1 -10.6543 10.9256 2.31633
2 -14.7432 -3.74565 -2.18838
2 -4.11783 -14.7003 2.03542
2 10.628 -10.665 -2.31217
2 13.4043 3.15169 4.29887
1 3.98913 13.0114 -4.47696
1 -9.48648 10.2005 4.57094
1 -13.3869 -3.03254 -4.32748
2 -4.07316 -13.147 4.46924
1 9.31132 -9.86999 -4.38695
2 12.1813 2.2099 6.65635
3 3.97127 11.4871 -6.61127