2739
 Atoms. Timestep: 6000
2 -0.0145668 0.250118 0.0819873
3 2.68633 -3.95857e-05 -0.0672286
2 1.48028 2.39733 0.0550776
3 -2.73696 0.110593 -0.0290238
2 -1.33949 -2.23104 -0.0332371
2 1.42345 -2.40001 0.0825695
1 1.30461 -0.83684 2.13767
3 0.122634 1.62037 2.21224
2 -1.48254 -0.487839 2.30387
2 0.138899 -1.56375 -2.04499
3 1.48562 0.919067 -2.135
2 -1.36249 0.868921 -2.24902
2 5.33067 0.00154472 -0.110097
2 2.83403 4.63635 -0.1293
1 -2.50063 4.67759 -0.110722
3 -5.38359 0.0106957 -0.281792
1 -2.7321 -4.42476 0.0912855
1 2.8246 -1.37298 4.17842
3 0.203281 3.25131 4.40593
2 -2.7731 -1.53361 4.38712
1 -0.144738 -3.13493 -4.71776
1 3.02373 1.48556 -4.46429
2 -2.45571 1.49353 -4.51674
2 4.15891 2.40173 -0.0674365
2 4.28901 -0.67153 2.10084
2 4.17973 0.764709 -2.46849
1 0.108314 4.58216 -0.0279579
2 1.33556 3.92966 2.22061
2 2.62699 3.20926 -2.13322
1 -4.0323 2.36385 -0.100325
2 -1.27986 3.92628 2.28058
1 -2.5351 3.16312 -2.21951
2 -4.14127 -2.20374 0.0076788
2 -4.31665 -0.674859 2.0549
3 -3.95905 0.93046 -2.41529
2 0.142901 -4.67472 -0.114901
2 -2.77235 -2.94996 2.29197
2 -1.40651 -3.95297 -2.37066
3 3.84822 -2.11007 -0.0133101
3 2.64572 -3.10281 2.18279
2 1.43256 -3.72141 -2.50621
1 1.35566 1.04499 4.38872
2 0.0647612 -1.5882 4.27511
1 -1.47791 0.916507 4.35201
1 1.50269 -0.891239 -4.21066
2 -1.18965 -0.835194 -4.37187
1 0.0899683 1.53734 -4.50248
2 2.77332 1.57146 2.17795
1 0.150947 3.12804 -2.23027
1 -2.52267 1.75505 2.04446
1 -2.6945 -1.37958 -2.13498
3 -0.0532341 -3.17643 1.94344
3 2.72042 -1.5696 -2.02989
2 7.90398 0.136044 -0.0160842
1 4.02796 6.93167 0.0135556
2 -4.07257 6.97876 -0.0768559
1 -3.99406 -6.76599 -0.0158503
2 3.89998 -7.06409 -0.152339
1 0.190137 4.60391 6.52293
2 -4.16723 -2.29954 6.33274
3 -0.11925 -4.8111 -6.5438
2 4.34787 2.15855 -6.80532
2 -4.02517 2.17304 -6.73175
2 6.67045 3.34643 -0.134391
3 7.00787 -0.671676 2.14918
1 6.78749 0.923981 -2.05339
2 1.46895 6.90508 -0.0766677
3 2.59416 6.17293 2.09733
3 4.09316 5.55345 -2.10669
2 -5.4141 4.80987 -0.0040841
1 -2.79047 6.09441 2.13543
2 -6.84005 -2.30505 -0.253105
1 -6.79832 -0.863946 1.92199
2 -6.7041 0.915986 -2.33549
2 -4.13112 -5.26248 2.14643
2 -2.69872 -6.19399 -2.44218
1 5.35377 -4.53382 -0.0799907
2 4.02086 -5.36019 1.89385
3 2.6801 -5.88326 -2.36975
1 2.985 0.180087 6.53199
2 1.55867 -2.3228 6.32955
2 -1.28655 2.44462 6.58646
1 1.59952 -2.439 -6.31554
2 1.4237 2.21197 -6.68974
1 5.39738 -1.46551 4.36275
3 5.47042 1.75655 -4.39028
2 -1.30787 6.87555 0.139045
1 1.43839 5.42874 4.32355
1 4.28261 3.9385 -4.57383
1 -6.85684 2.35442 -0.197561
2 -3.78581 3.69826 -4.46378
3 -5.35367 -4.48001 -0.207527
3 -5.49557 -1.63892 4.28762
3 -5.27197 1.47598 -4.52996
2 1.20759 -7.05447 -0.169661
3 -4.13178 -3.83083 4.38473
1 -1.26713 -5.54044 -4.39083
1 6.73695 -2.3395 0.0743557
1 3.99158 -3.81295 4.23978
1 2.10326 -4.82194 -4.92073
2 1.47403 2.41833 6.58084
1 -1.38597 -2.14032 6.70237
2 -2.72962 0.0883694 6.75166
2 -2.47215 0.0145149 -6.65271
2 5.36523 3.18495 -2.18587
2 0.0980124 6.25919 2.24466
1 -5.34217 3.40045 -2.49296
2 0.135979 -6.27475 -2.46554
2 5.36579 -2.89709 2.13352
1 0.137089 0.141773 6.58397
2 0.249734 -0.270562 -6.59609
1 5.62484 1.61007 1.92727
2 -4.12723 3.75723 2.11952
2 -5.18738 -1.42904 -2.28579
2 -1.40678 -5.43941 2.14466
1 1.37834 3.76327 -4.40743
2 -2.55798 3.4556 4.50805
2 -3.86249 -0.743498 -4.55614
2 -1.38155 -3.79721 4.52612
1 3.99353 -3.75413 -3.19593
2 4.0584 3.92217 2.12195
3 -1.19965 5.40536 -2.17739
2 -5.52156 1.62026 1.99802
3 -3.97507 -3.78928 -2.16544
2 1.32641 -5.34629 2.06308
1 5.30371 -1.62137 -2.06916
3 2.82233 3.09354 4.40508
3 -1.2415 3.79321 -4.40917
1 -4.26492 0.726927 4.30639
2 -2.61979 -3.17959 -4.43493
2 1.22005 -4.10052 4.20457
3 4.21067 -1.20769 -4.48661
1 5.32057 9.41999 -0.0360378
3 -5.41624 9.13233 -0.0770371
2 -10.6471 0.352587 0.00227088
2 -5.4129 -9.26077 -0.101262
1 4.92581 -9.67613 0.0396182
2 5.51357 -3.09065 8.68859
2 0.119674 6.33669 8.74201
2 -5.52489 -3.093 8.74617
2 -5.38928 3.01219 -8.73469
2 9.541 2.4782 0.00879204
2 9.57408 -0.759517 1.81741
1 9.48323 0.952242 -2.09673
1 2.66097 9.4072 -0.017532
1 4.03888 8.5833 2.21446
2 5.38396 7.81868 -1.84972
2 -6.7788 6.99225 0.0766818
1 -4.00672 8.43606 2.15743
1 -5.64702 7.49173 -2.16541
3 -9.44347 -2.20558 -0.327659
2 -9.25201 -0.854059 2.04183
3 -9.43122 0.93516 -2.27842
3 -2.67827 -9.02522 -0.0453972
1 -5.41364 -7.56149 2.08159
1 -4.04618 -8.47597 -2.2369
2 6.78057 -6.69221 -0.232168
2 5.26995 -7.68558 1.98694
1 4.04968 -8.55773 -2.31528
2 3.94554 -0.837758 8.76953
2 2.77362 -3.13901 8.75678
2 1.45739 -4.15034 -8.52933
2 3.20797 2.90594 -8.90007
1 8.12059 -1.40773 4.40254
3 7.98663 1.74215 -4.35619
3 -0.0292379 9.3083 0.0985433
3 2.78769 7.87005 4.42964
2 5.32224 6.13799 -4.34108
3 -8.07428 4.66114 -0.0685731
1 -2.69058 7.75789 4.36454
1 -5.11602 5.66434 -4.00498
1 -8.17582 -1.6332 4.27849
2 -7.96613 1.57803 -4.38181
1 -0.0325395 -9.3438 -0.199856
1 -5.30385 -5.96246 4.39105
3 -2.69158 -7.82021 -4.41306
2 5.26888 -6.08917 4.34751
1 2.64106 -7.53378 -4.43525
3 2.83758 1.53099 8.69782
1 0.0861112 -2.98609 8.77588
2 -2.69635 1.72679 8.81366
2 2.70686 -1.73985 -8.39269
2 -2.43372 -1.78217 -8.8343
3 0.0860856 2.90514 -8.73891
2 6.97535 7.12757 0.258495
3 6.77994 -2.28315 6.45612
1 6.94553 2.29219 -6.59182
2 -2.74826 9.24434 -0.0184827
3 1.41293 7.01308 6.6349
1 5.39186 4.45926 -7.01795
2 -9.49364 2.52533 -0.209531
1 -1.35235 6.95409 6.57264
2 -5.33165 4.48829 -6.52822
1 -6.80014 -6.62307 -0.133254
2 -6.85872 -2.40342 6.62766
3 -6.73909 2.21391 -6.53555
2 2.63454 -9.24535 -0.0647574
3 -5.46006 -4.60292 6.60212
1 -1.41201 -7.17934 -6.68608
1 5.28283 -4.57585 6.4551
3 1.28683 -6.82628 -6.63558
2 1.56201 3.90145 8.93736
2 -2.84104 -2.98993 8.64606
3 -4.3003 -0.831814 8.41769
3 4.19831 0.420659 -9.01005
2 -3.97629 0.706276 -8.85759
3 -2.82425 3.14528 -8.86887
3 8.14489 3.2707 -2.14399
1 1.33545 8.54677 2.22579
2 -8.29217 -3.21539 1.76554
2 -1.47044 -8.51809 -2.2374
1 6.56927 -5.55283 2.25587
1 1.32856 -0.478096 8.93034
1 0.0272628 -1.93642 -8.73582
2 6.88648 4.02174 -4.18381
3 0.115398 7.88104 4.40544
2 -6.8087 -3.71794 4.16601
2 0.0611541 -7.90126 -4.69546
2 6.72921 -3.89649 4.43178
1 -1.36311 -0.497025 8.86485
3 -1.00626 0.486559 -8.80136
3 8.2463 1.76005 2.18367
2 2.54192 7.7945 -2.34427
2 -8.02212 -1.55034 -2.30526
1 -2.63536 -7.58214 2.08654
3 5.14706 -5.97127 -2.27271
1 6.64294 0.973506 4.36644
1 2.63722 6.07783 -4.29334
1 -4.13918 5.51489 4.21248
2 -6.6162 -0.754543 -4.47514
3 -2.80724 -6.01152 4.29801
2 5.39807 0.0942714 6.68675
3 2.81035 4.49179 -6.62499
1 -2.66083 4.71696 6.70546
1 -5.40725 -0.103826 -6.80328
2 -2.88895 -4.70701 6.51838
1 3.95148 -6.17498 -6.20999
2 6.81864 5.41288 -1.84172
1 -1.35684 8.54516 2.17995
3 -8.09839 3.11918 -2.20594
2 -6.76007 -5.3531 2.05966
1 1.27446 -8.70547 -2.58744
1 7.88119 -3.21704 2.1512
3 0.142197 1.70768 8.82984
2 1.52245 0.641544 -8.62645
1 6.59512 3.90186 2.35894
3 -0.182714 7.70605 -2.04336
3 -6.72183 3.9425 1.86706
3 -6.65895 -4.1064 -2.30109
3 0.0903836 -7.65305 1.97414
3 6.60576 -3.74713 -2.30786
2 5.4004 3.13187 4.56263
3 0.0241849 6.03529 -4.37054
1 -5.35459 3.08159 4.29224
1 -5.31506 -3.16031 -4.34191
2 5.84716 -4.82153 -4.50701
3 4.13361 2.44707 6.70968
1 0.0152499 4.62504 -6.62795
1 -3.91026 2.46935 6.4474
1 -3.87495 -2.34128 -6.58234
2 -0.00878581 -4.63879 6.61611
2 5.69459 -2.75949 -6.09447
2 5.42073 6.30536 2.25903
2 -2.68639 7.54778 -2.19025
2 -8.06191 1.55786 1.98423
3 -5.42541 -6.28927 -2.1943
1 2.70959 -7.55346 2.15775
1 8.1194 -1.5622 -2.0346
2 4.09855 5.50997 4.39499
2 -2.61438 5.92281 -4.4888
3 -6.8983 0.792436 4.01355
2 -4.01815 -5.55672 -4.41031
2 6.82659 -0.610324 -4.50788
2 -2.54749 4.44756 -6.71485
1 -5.73044 0.0804662 6.25821
3 -2.65131 -4.81939 -6.51903
1 2.74937 -4.60449 6.57048
1 5.53178 -0.0410106 -6.62566
2 13.3001 0.266135 0.00847554
3 6.80332 11.7166 0.0169952
2 -6.72895 11.4003 0.0137038
2 -13.5464 0.21975 0.0376035
2 -6.65784 -11.4703 -0.263564
3 6.68797 -11.5137 0.0621883
2 6.54145 -3.86622 11.0911
1 0.0659062 7.73374 11.1492
2 -6.7843 -3.77836 10.7767
1 0.111468 -7.6396 -10.8898
2 6.57256 4.0373 -10.9376
2 -6.52294 3.81977 -10.9939
3 12.1398 2.58 -0.0277881
2 12.1405 -0.542938 2.03816
2 11.9164 0.926467 -2.11306
2 4.09727 11.7274 -0.107083
2 5.41267 10.9537 2.28485
1 6.79863 10.2125 -2.0847
1 -8.18874 9.33018 0.110444
1 -5.39476 10.6708 2.24851
3 -6.72517 9.78038 -2.15641
2 -12.0722 -2.25973 0.0969034
2 -12.1817 -0.69616 2.18959
1 -12.0843 1.06446 -2.24547
2 -3.97204 -11.435 0.0121363
1 -6.94571 -9.89489 2.19208
2 -5.44618 -10.7938 -2.3155
1 7.86855 -9.00987 -0.0466828
2 6.79682 -9.82116 2.09872
2 5.32983 -10.7344 -2.27188
2 5.21312 -1.58154 11.0023
2 3.92469 -3.88221 10.9774
1 -1.43661 5.47479 11.1562
2 -1.30753 -5.60453 -10.8324
1 10.6002 4.79681 0.0447838
3 10.6437 -1.41023 4.15807
3 10.9331 1.65411 -4.34189
1 1.30702 11.7161 -0.0513834
1 4.33441 10.1327 4.50412
1 6.6641 8.23502 -4.77706
2 -9.47424 7.04328 0.0507752
1 -4.09882 10.0374 4.43646
2 -6.6095 8.169 -4.36471
3 -10.84 -1.41867 4.1362
3 -10.9098 1.47783 -4.45764
3 -1.31758 -11.6199 0.0187221
2 -8.04551 -9.39099 6.29826
2 -3.93752 -10.0241 -4.44621
1 9.28722 -6.7777 -0.178052
1 6.5551 -8.40485 4.40031
2 3.79096 -10.0367 -4.32006
3 4.07465 0.668579 10.9498
3 1.1886 -3.77718 10.975
2 -2.77357 3.31876 10.7811
2 2.76533 -3.23059 -10.5625
2 -2.66991 -3.10999 -11.0178
2 1.5337 3.71501 -10.8012
1 9.30134 7.07755 0.0255827
2 9.32499 -2.40496 6.62113
2 9.47171 2.20725 -6.49126
2 -1.24056 11.5677 0.0483021
3 2.88151 9.34393 6.60881
1 -10.8573 4.60699 -0.134672
1 -2.6381 9.36024 6.68072
2 -6.91234 6.84777 -6.59862
1 -9.46118 -6.90384 0.128104
1 -9.28593 -2.42943 6.79203
1 -9.33949 2.4321 -6.62337
3 1.3496 -11.4623 0.077348
1 -6.70731 -7.01509 6.41728
2 -2.53595 -9.46996 -6.62745
1 10.5865 -4.5296 -0.0898377
2 6.65868 -6.91083 6.59535
2 2.62675 -9.11192 -6.7525
1 -1.38917 -3.80633 10.8894
2 -4.05824 0.850355 10.8263
2 -3.95842 -0.898524 -10.9316
2 -1.30164 3.8262 -10.8459
1 8.13135 9.48891 0.248213
2 8.09137 -3.04437 8.82357
3 8.11137 3.2697 -8.60678
2 -3.96514 11.4871 0.067106
1 1.63585 8.56089 8.73624
2 6.62445 5.5691 -8.84696
2 -1.28634 8.56878 8.90781
3 -6.54479 5.43706 -8.76802
3 -8.08077 -9.11751 0.0167041
3 -1.27515 -8.47686 -8.79652
2 6.69728 -5.38185 8.8996
1 1.36758 -8.32393 -8.84331
2 1.45024 5.33455 11.1113
2 -3.98058 -3.69098 10.8613
2 -5.27387 -1.41614 10.819
1 4.98092 1.98035 -11.0533
2 -5.13388 1.46047 -11.0082
1 -3.58538 3.91123 -11.1754
1 10.8793 3.33237 -2.15908
3 2.81323 10.9212 2.21166
1 -7.00412 5.50246 -2.44689
1 -2.3519 -10.7457 -2.3272
3 2.56065 -1.66416 10.9034
2 0.0373342 -3.43245 -10.7698
1 9.54632 3.87377 -4.32916
2 1.51997 10.1861 4.54936
2 -9.53912 -3.76604 4.13039
2 7.90042 -6.28523 4.36263
3 -0.0763901 -1.57385 10.9748
2 8.14243 4.67859 -6.52497
2 0.072579 9.25076 6.72195
2 -8.04938 4.49778 -6.65068
3 0.0985244 -9.26046 -6.77591
3 8.04321 -4.6169 6.66934
2 -2.48746 1.52315 -10.9832
3 10.6811 1.77489 2.19613
3 4.00832 10.0064 -2.34185
2 -6.65784 8.2658 2.35601
2 -10.8961 -1.40921 -2.20471
2 -4.02836 -9.76236 2.15865
1 6.64509 -8.19286 -2.15806
2 9.45103 0.728605 4.33136
1 3.82169 8.47161 -4.63064
3 -5.37767 7.68413 4.44753
2 -9.54825 -0.798024 -4.43974
1 -4.10293 -8.39905 4.38484
1 5.45839 -7.50874 -4.51205
3 8.13151 0.0626045 6.64588
2 4.16478 7.08031 -6.84195
1 -4.0652 7.10364 6.54682
2 -8.01392 -0.0502552 -6.62065
1 -3.99007 -7.05245 6.56035
1 6.74895 -0.869416 8.75207
2 4.08254 5.41979 -8.89507
1 -2.65502 6.20855 8.90754
1 -6.78801 1.04602 -8.84705
2 -4.38452 -5.36297 8.68892
2 3.19785 -6.10622 -8.55676
3 9.40804 5.51869 -2.10869
2 0.0735408 10.9182 2.25127
2 -9.40704 5.40861 -2.21259
1 9.25152 -5.35192 2.1283
3 1.37669 0.873222 10.8964
2 1.34493 -1.06787 -10.8613
2 7.90946 6.28321 -4.37918
2 -1.39274 9.95907 4.4328
3 -8.0495 -5.95756 4.26008
2 9.36569 -3.88036 4.43791
2 -1.25012 0.9469 10.9377
2 0.095202 1.53849 -10.9086
2 9.36661 3.92095 2.28265
2 1.38129 10.1218 -2.11335
2 -8.13758 5.99789 2.20886
2 -9.54175 -3.96162 -2.16596
3 -1.39244 -9.93921 2.09013
2 7.8585 -5.94542 -2.5021
2 8.05586 2.94086 4.46869
1 1.28121 8.49541 -4.31528
2 -7.89696 -3.02901 -4.39253
3 -1.31763 -8.45387 4.29659
2 6.86727 2.35011 6.73106
2 1.52932 6.8394 -6.6522
2 -5.43273 4.79207 6.24258
2 -6.69234 -2.21421 -6.80196
1 -1.38208 -6.72204 6.45139
3 5.35869 1.5862 8.79973
2 1.33032 5.10586 -8.71512
3 -4.19949 3.97238 8.71181
3 -5.14573 -1.8324 -8.82367
2 -1.43496 -5.38459 8.70815
1 3.60504 -3.80062 -7.23374
2 8.02192 7.91874 -2.17937
3 -2.71351 10.8653 2.18068
1 -10.7879 3.21531 -2.48152
3 -7.96078 -7.58205 2.13902
2 2.82141 -10.9372 -1.95128
2 10.6216 -2.96642 2.03984
3 0.111648 3.11 10.9866
2 2.65025 1.30225 -10.899
2 8.13793 6.2882 2.41725
2 -1.27542 10.0711 -2.12314
3 -9.57836 3.91856 2.07222
3 -8.18388 -6.24374 -2.22968
2 1.27293 -9.85989 2.09062
2 9.47579 -3.65575 -2.27453
2 6.74129 5.44656 4.60472
2 -1.38544 8.33144 -4.32602
2 -8.11486 3.37001 4.00785
2 -6.70125 -5.54802 -4.42003
2 1.35107 -8.44902 4.24015
1 7.77224 -3.04409 -4.49731
1 2.84451 4.86387 6.64948
2 -1.18565 6.85673 -6.46797
2 -6.89565 2.4105 6.34384
1 -5.384 -4.68379 -6.86357
1 1.35354 -6.74226 6.21385
2 4.11552 3.86992 8.85585
2 -5.39135 1.6799 8.49086
2 -3.89851 -4.08073 -8.71006
1 1.23766 -5.35069 8.74244
2 5.28016 -1.70208 -8.44441
2 6.88342 8.75619 2.4002
1 -4.11307 9.90514 -2.18107
1 -6.82742 -8.616 -2.18925
1 10.8437 -1.33877 -2.31059
2 5.49191 7.89353 4.52437
3 -4.03483 8.3318 -4.29953
2 -9.47801 0.807948 4.24818
2 -5.43902 -7.92473 -4.46411
3 3.8696 -8.48681 4.29807
1 9.27149 -0.685248 -4.2696
2 4.03439 7.03452 6.63177
2 -4.14791 6.7986 -6.30573
2 -4.06363 -7.12768 -6.68198
3 3.97642 -7.04704 6.53266
3 8.25553 0.0399663 -6.57305
2 2.71113 6.19437 8.78079
1 -4.07577 5.3188 -8.86187
2 -6.7762 -0.718661 8.60368
1 -2.55126 -6.23823 -8.84881
3 4.0512 -5.50935 8.62254
2 16.2321 0.16162 -0.0815627
2 -8.05828 14.0264 -0.0343148
2 -16.3043 0.156589 -0.0967929
3 7.95134 -13.6952 -0.000916209
1 8.20621 -4.70097 13.1184
2 0.0279154 9.34587 13.4364
2 -8.17111 -4.57645 13.0098
1 -0.0224524 -9.17822 -13.2942
3 -7.95005 4.55342 -13.1827
1 14.9398 2.29047 -0.0070098
1 15.0111 -0.357762 2.20499
2 14.8582 0.719951 -2.20541
2 8.03631 12.414 -2.21597
1 -9.41717 11.6524 -0.0788108
1 -6.66445 13.0223 2.31371
3 -14.6491 -2.13024 0.0993758
2 -14.9261 -0.495564 2.26324
2 -14.7527 0.840958 -2.38464
1 -5.76946 -13.9359 -0.191996
3 -6.63219 -13.0534 -2.28721
3 9.30182 -11.383 0.0504466
2 7.74695 -12.2522 2.21317
3 6.65472 -12.9986 -2.03403
2 6.66286 -2.37147 13.1883
1 5.15842 -5.06006 13.2064
3 1.27899 -6.88799 -13.2615
3 -1.35208 -7.00933 -13.1888
2 13.7686 4.58878 -0.0844674
1 13.5292 -1.5983 4.22247
2 13.5781 1.54679 -4.27945
3 2.60129 13.8794 -0.128305
2 5.5238 12.6175 4.47123
1 8.0426 10.6896 -4.26258
2 -10.8442 9.20121 0.0853926
1 -5.2317 12.4794 4.47144
1 -7.95088 10.7857 -4.23911
2 -13.3997 -4.44414 -0.0140689
1 -13.6138 -1.56849 4.23568
3 -13.3508 1.61194 -4.42313
2 -2.73879 -13.8753 0.0224562
3 -8.05267 -10.9322 4.34423
2 -5.35343 -12.4246 -4.41799
3 10.671 -9.06388 -0.0675741
2 7.99984 -10.774 4.31593
3 5.24583 -12.1378 -4.34237
3 5.20991 0.0494606 13.1328
3 2.5089 -4.39553 13.0759
1 -2.83105 4.85461 13.6139
2 2.74076 -4.89955 -12.3987
2 -2.75199 -4.83211 -13.1543
3 2.77787 4.6371 -13.0543
2 11.8321 6.9433 0.148917
3 12.2023 -2.22814 6.72251
2 12.2106 2.29311 -6.44484
2 -0.0358852 13.9849 -0.148698
1 4.04591 11.668 6.7001
2 8.10632 9.315 -6.624
2 -12.1835 6.93079 0.0524996
1 -4.10125 11.5905 6.70237
2 -8.0362 9.1615 -6.53671
2 -12.1871 -7.1322 0.0520294
2 -12.1628 -2.21991 6.54187
1 -12.1453 2.40899 -6.43126
2 0.172356 -13.851 0.0780908
1 -4.08142 -11.6589 -6.68178
3 11.9757 -6.65503 -0.118514
2 8.06876 -9.21327 6.58944
3 4.00934 -11.446 -6.3738
1 4.01169 2.26574 12.9468
3 -0.00238816 -4.2174 13.0446
2 -4.06032 2.80589 12.9294
1 3.94183 -2.48099 -12.6088
2 0.0904364 4.56477 -13.0404
1 10.9509 9.41514 0.248534
2 10.8014 -2.8275 8.85579
2 10.668 3.20037 -8.7991
2 -2.65943 13.9539 0.0494628
3 8.06153 7.84537 -8.9294
2 -13.5253 4.6115 0.0277978
3 -2.63291 10.8787 8.82246
1 -8.0897 7.74003 -8.88245
2 -10.5406 -9.30579 -0.106848
2 -10.8431 -3.13072 8.562
3 -10.9543 2.90125 -8.7789
3 -2.56262 -10.9644 -8.73862
2 13.4104 -4.35137 -0.253658
1 7.8776 -7.71023 8.77543
3 2.66556 -10.6932 -8.83019
3 2.72697 4.73741 13.2349
1 -2.65484 -4.56304 13.0248
2 -5.29074 0.21341 13.0743
1 5.27273 0.0179994 -13.0347
2 -5.20579 -0.146489 -13.257
2 9.53171 11.5654 -0.148772
2 9.43049 -3.95136 11.1121
3 9.17372 4.05894 -10.9146
2 -5.45074 13.9178 0.152967
2 1.41067 10.0794 11.0002
2 7.97502 6.35115 -10.995
2 -14.9767 2.44753 0.0359454
3 -1.14972 10.0657 11.1172
2 -8.02515 6.17213 -10.944
3 -9.20861 -11.4882 0.0183013
2 -9.50185 -3.91587 10.7861
1 -9.3012 3.69822 -10.7978
1 5.21925 -13.7927 0.0132304
2 -8.04401 -6.20918 10.8711
1 -1.35081 -10.1541 -10.9384
2 14.7408 -1.94222 0.0647305
3 8.126 -6.05044 10.8295
2 1.26515 -9.70376 -10.9283
2 1.3781 6.98498 13.1415
2 -5.2916 -4.51108 13.0745
2 -6.66158 -2.12588 12.9963
1 6.41433 2.62021 -13.1485
1 -6.62327 2.39628 -13.3741
2 -5.40591 4.49232 -13.26
1 13.7275 3.14814 -2.27861
2 3.9787 13.2643 2.1003
2 -9.30653 10.0086 -1.98883
2 -13.5557 -3.11218 2.1951
2 -3.96172 -13.0397 -2.20674
2 9.37368 -9.78668 2.02535
3 3.87662 -2.27212 13.1454
2 0.117021 -4.73824 -13.1213
2 12.0388 3.97966 -4.30499
2 2.78469 12.4642 4.33804
2 -9.31114 8.42166 -4.46221
2 -12.1018 -3.90083 4.45649
2 -2.71491 -12.2994 -4.27182
2 9.32215 -8.55689 4.25604
3 1.31918 -2.26425 12.8505
3 -1.22701 -2.53802 -13.0674
1 10.79 4.6512 -6.59807
2 1.33831 11.623 6.78022
2 -9.37107 6.85799 -6.51638
1 -10.1455 -4.74134 6.28297
1 -1.32408 -11.6014 -6.59844
2 9.3975 -6.86348 6.63603
3 -1.32684 -2.20912 12.9156
2 -2.44718 -0.164358 -13.1877
1 9.5474 5.52097 -8.74088
3 0.0105693 10.8644 8.92109
2 -9.42924 5.24616 -8.81242
2 -9.53936 -5.35819 8.60039
2 0.075154 -10.7809 -8.85021
2 9.51829 -5.35664 8.76061
2 -3.95572 -2.01494 12.9811
1 -3.84554 2.45102 -13.2907
3 13.4218 1.61182 2.15493
1 5.25425 12.3991 -2.25092
1 -8.13848 10.702 2.50351
1 -13.3809 -1.28518 -2.24277
2 -5.51225 -12.2436 2.05412
1 7.96661 -10.7391 -2.16868
1 12.2148 0.77512 4.42529
3 5.38317 10.7425 -4.36654
1 -6.80019 10.0153 4.6037
2 -12.0839 -0.799689 -4.6515
1 -5.43995 -10.8129 4.25977
2 6.47977 -9.90813 -4.52404
2 10.7246 -0.124474 6.43256
2 5.31807 9.24097 -6.62643
2 -5.33046 9.2163 6.72535
2 -10.8262 0.15259 -6.72847
3 -5.40838 -9.35541 6.57711
1 5.06018 -8.96879 -6.8841
2 9.41687 -0.633757 8.71077
1 5.5251 7.675 -8.81413
3 -3.89115 8.58678 8.87226
3 -9.42861 0.789423 -8.75743
2 -5.36667 -7.77192 8.54503
3 3.90429 -8.44381 -8.97056
2 8.15919 -1.34744 11.0432
2 5.32999 6.43739 -10.9815
2 -2.7538 7.72367 10.9956
2 -7.958 1.41645 -10.9647
3 -5.46277 -5.96228 11.0025
1 2.72528 -6.97047 -10.9765
2 12.1393 5.53013 -2.24588
2 1.38909 13.1872 1.98626
2 -10.6642 7.64458 -2.28026
2 -10.7169 -4.56595 -0.0131028
2 -1.21301 -12.9086 -2.18351
1 10.713 -7.64273 2.11957
2 2.64682 0.0118432 12.8868
3 1.36987 -2.64266 -12.8507
1 10.8618 6.33703 -4.47991
2 0.133289 12.4762 4.35822
1 -10.8395 5.21923 -4.38974
1 -10.772 -5.91295 4.07444
3 0.214705 -12.1259 -4.24853
2 10.7723 -6.14377 4.37703
2 -0.045344 0.0540301 12.8853
1 0.0408282 -0.242228 -13.0471
1 9.25883 6.99706 -6.61468
2 -1.27188 11.5213 6.65119
2 -10.8465 4.6523 -6.75192
1 -9.28333 -7.10115 6.59326
2 1.36796 -11.5581 -6.59079
2 10.8557 -4.61777 6.56942
2 -2.73961 0.168225 13.151
2 -1.28239 2.17426 -13.213
2 11.9252 3.92561 2.21686
3 2.68826 12.4367 -2.24054
2 -9.43758 8.46979 2.25882
3 -12.0387 -3.78789 -2.20151
3 -2.67654 -12.1249 2.36403
2 9.23267 -8.38106 -2.25387
2 10.8276 3.02944 4.47293
1 2.62163 10.8455 -4.46833
3 -8.24001 7.81243 4.30158
3 -10.5798 -3.03495 -4.43651
2 -2.78053 -10.6402 4.34247
3 8.09644 -7.50574 -4.4668
3 9.58033 2.23586 6.72353
1 -6.97859 7.0037 6.61372
2 -9.72151 -2.25931 -6.59985
3 -2.64359 -9.22224 6.53572
1 6.6229 -6.74884 -6.8848
2 8.05452 1.62386 8.74722
3 2.63791 7.66783 -8.90253
1 -5.4444 6.35712 8.75518
1 -7.88304 -1.35362 -8.94111
1 -2.68876 -7.7206 8.73756
2 6.65221 0.803944 10.9398
2 2.68701 6.08511 -10.9666
3 -4.11901 5.44732 11.0109
3 -6.49771 -0.651244 -10.972
2 -2.88646 -6.29834 10.805
1 10.9279 7.84738 -2.10274
2 -1.40839 13.136 2.18474
2 -12.2136 5.44991 -2.19028
2 -10.8571 -7.74241 2.29025
2 1.4019 -13.0627 -2.19896
2 12.0561 -5.3543 2.10406
2 1.54085 2.31395 13.0393
2 2.65173 -0.0361998 -13.0635
2 9.35224 8.39915 -4.60557
2 -2.61848 12.3492 4.52794
3 -9.50153 -8.36595 4.25859
2 2.78785 -12.4266 -4.3655
2 12.0514 -3.69829 4.38542
3 -1.41657 2.57748 12.9757
3 1.38915 2.28102 -12.9571
2 10.8282 6.25827 2.31646
3 0.0874099 12.4033 -2.24729
3 -10.8471 6.19061 2.1302
2 -10.7913 -6.24091 -2.01421
2 -0.206153 -12.2486 2.16572
2 10.5521 -6.03138 -2.35647
1 9.29664 5.5666 4.61123
2 -0.04355 10.795 -4.54369
3 -9.48883 5.54207 4.31468
2 -9.42408 -5.38297 -4.38296
2 -0.0708303 -10.7098 4.31625
3 9.30434 -5.4662 -4.49589
2 8.23247 4.73929 6.59687
2 0.160262 9.17005 -6.5885
1 -8.20109 4.66759 6.47793
2 -7.96883 -4.58994 -6.55352
2 -0.0589308 -8.8027 6.56516
2 7.85708 -4.62642 -6.42194
2 6.6804 4.0348 8.9472
2 0.0260616 7.45543 -8.6216
1 -6.93304 4.08863 8.57588
2 -6.75243 -3.93017 -8.84173
2 0.00292213 -7.95642 8.99059
3 5.93085 -4.18606 -8.083
2 -0.0734486 6.07556 -10.903
2 -5.49634 3.23483 10.6831
2 -5.46388 -3.30416 -11.0426
3 -0.0846045 -6.15864 10.8664
2 5.30637 -3.28997 -10.4379
2 9.67822 10.111 -2.31781
1 -4.00118 13.1499 2.33983
2 -13.3756 3.0924 -2.20089
2 -9.34641 -10.1866 2.22622
3 4.16597 -13.0529 -2.10123
3 13.207 -3.10405 1.97311
2 -0.082907 4.69332 13.0041
3 9.4966 8.54841 2.25261
3 -2.73813 12.3471 -2.06994
3 -12.1163 3.8287 2.06943
3 -9.51415 -8.44257 -2.29927
3 2.43377 -12.0273 2.18808
1 12.055 -3.69082 -2.32612
3 8.17036 7.83407 4.49151
1 -2.71669 10.7546 -4.36699
2 -10.9 1.6129 2.11421
3 -7.97923 -7.66994 -4.47743
2 2.77911 -10.6841 4.29735
1 10.5699 -3.18517 -4.51845
2 6.95796 7.38056 6.71124
2 -2.82499 9.05252 -6.55991
1 -9.48833 2.34915 6.24561
3 -6.71707 -6.96031 -6.76789
3 2.5051 -9.10933 6.51162
1 9.23615 -2.39341 -6.70842
2 5.45493 6.26809 8.79669
3 -2.76684 7.51291 -8.57897
1 -8.20136 1.38719 8.45561
3 -5.37797 -6.27868 -8.86113
2 2.54222 -7.67038 8.79955
3 7.90879 -1.61797 -8.81742
3 4.07323 5.5119 10.9842
2 -6.71547 0.838561 10.8266
1 -4.11912 -5.52242 -10.952
2 2.44947 -6.14142 11.1407
2 6.27406 -0.721024 -10.7681
2 8.02866 11.0466 2.27288
1 -5.57675 12.1385 -2.28705
3 -13.5451 1.62856 2.10177
3 -8.00748 -10.8665 -2.24642
2 4.89733 -11.801 1.96801
2 13.352 -1.34372 -2.20956
3 -5.42528 10.5981 -4.35454
2 -6.745 -10.1812 -4.36262
3 5.44477 -10.8887 4.22635
1 5.59148 9.47146 6.79944
2 -5.54389 9.14937 -6.5165
2 -10.8544 0.1839 6.18235
2 -5.45072 -9.37623 -6.71666
2 5.3389 -9.29136 6.58135
1 10.8151 -0.0964545 -6.4651
2 4.21302 8.75894 8.88894
2 -5.36335 7.69479 -8.78185
2 -9.50933 -0.826365 8.56457
1 -3.95614 -8.73231 -8.85307
3 5.31583 -7.53672 8.72279
2 9.09273 0.913221 -8.74398
2 2.81241 7.80723 10.8455
2 -5.26209 6.09945 -10.8754
2 -8.20023 -1.71607 10.5846
3 -2.58149 -7.86293 -10.9062
2 5.27053 -6.23016 10.9911
2 7.50533 1.59587 -10.8748
3 18.6606 0.0780256 0.121498
3 8.14626 14.0289 -0.00700136
2 8.88161 -17.1501 -0.194746
1 9.53096 -5.29608 15.4929
2 0.120203 10.9695 15.937
2 -9.5493 -5.32499 15.3381
3 7.88024 4.62628 -13.1266
3 -9.66761 5.37629 -15.3642
1 17.8244 -0.900321 2.48586
2 5.3855 14.0785 -0.283079
2 6.7264 13.4793 2.11249
1 9.47818 15.0718 -2.13368
3 -10.6787 13.9272 0.0759528
2 -7.91823 15.3997 2.26223
3 -9.48325 14.6041 -2.18207
3 -17.6186 -0.72302 2.20961
2 -17.6055 1.03305 -2.21423
2 -7.21671 -15.9579 0.334899
3 -9.30531 -15.0512 2.69555
2 -7.7756 -15.1158 -1.89111
1 10.465 -13.6829 -0.0223385
2 9.08247 -14.4539 2.09778
2 7.83264 -15.2818 -1.90358
2 8.02279 -3.29422 15.3313
1 7.13741 -5.61443 15.2921
1 -1.40702 7.16466 13.2694
3 1.45403 -8.54515 -15.4355
3 -1.3766 -8.83506 -15.3935
2 6.44592 5.36014 -15.3949
2 16.51 4.78982 0.160436
1 16.1532 -1.7847 4.45347
2 16.2482 1.517 -4.14428
1 3.90557 16.2501 -0.0220974
3 6.7045 14.9766 4.44959
1 9.45223 13.1178 -4.42007
2 -12.1539 11.7302 -0.131031
2 -6.72552 14.6145 4.46059
3 -9.3573 13.053 -4.25636
2 -16.0182 -4.34042 -0.0857949
2 -16.2243 -1.44797 4.39365
3 -16.2898 1.67879 -4.43494
2 -4.4191 -16.1142 -0.0457943
2 -9.19303 -13.1682 4.46802
2 -6.62443 -14.6807 -4.37041
3 11.8925 -11.4252 -0.0665164
1 9.10644 -13.0604 4.51862
1 6.75253 -14.4221 -4.15771
1 6.79755 -0.741779 15.4009
2 3.50014 -5.11154 15.2648
1 -2.35997 6.29433 15.9753
2 2.44874 -6.20176 -15.3896
2 -2.84656 -6.28221 -15.2514
1 3.73585 5.39101 -15.3522
3 14.8972 6.87339 -0.243497
1 14.8633 -2.46811 6.62997
3 14.9246 2.362 -6.27895
1 1.1664 16.2825 -0.114748
3 9.42574 11.6088 -6.60535
1 -5.36456 13.7657 6.76836
1 -9.42901 11.4666 -6.4098
3 -14.8501 -6.63013 -0.0711743
2 -14.8786 -2.29685 6.38271
2 -14.7295 2.16326 -6.56746
2 -1.1003 -16.1014 -0.107173
1 -9.50239 -11.645 6.55038
2 -5.33331 -13.9937 -6.62194
2 13.3057 -8.99789 -0.171174
3 9.16912 -11.5568 6.64046
2 5.29434 -13.7591 -6.48192
1 5.34762 1.5542 15.2642
3 0.917721 -4.63097 15.3077
1 -4.06755 4.14572 15.8422
1 3.72328 -3.88048 -15.2947
2 -3.95658 -2.41218 -13.2841
3 1.39872 5.27552 -15.1317
2 13.5326 9.30087 -0.0553322
1 13.3951 -2.96 8.83452
2 -1.3517 16.3237 0.155086
3 3.76302 13.1478 8.84605
2 9.45082 10.0579 -8.75503
1 -13.5047 6.16938 2.06818
3 -4.09881 13.0312 8.87317
2 -9.40059 9.91643 -8.65301
1 -13.4713 -2.93663 8.86706
1 -13.6356 2.98696 -8.82965
3 1.4109 -16.1831 0.00544422
2 -9.2516 -9.85479 8.79396
2 -3.80602 -13.3195 -8.83909
3 14.555 -6.75698 0.0396666
1 9.47175 -9.81699 8.67176
2 4.08422 -12.9671 -8.69248
3 3.98303 3.79452 15.356
2 -5.31607 1.61527 15.4919
1 5.08336 -1.60712 -15.0605
3 -1.48203 5.42514 -15.2499
1 12.2932 11.7957 0.201328
2 12.0935 -3.74905 10.9935
2 11.8372 3.83744 -11.0887
3 -4.10225 16.1254 0.227331
3 2.80909 10.9617 8.98628
3 9.44386 8.4928 -10.9254
1 -16.1716 4.64629 0.22788
3 -2.78341 12.2612 11.109
2 -9.33785 8.72068 -11.128
3 -11.7761 -11.6418 0.0574613
3 -12.0974 -3.9294 10.8559
2 -12.3106 3.84253 -10.9047
3 4.02443 -16.2132 0.0444486
3 -9.48539 -8.45181 10.956
2 -2.51368 -12.6062 -10.955
3 16.1758 -4.53208 -0.24253
3 9.31759 -8.34904 10.9252
2 2.71316 -12.1541 -10.8198
2 2.7691 6.11787 15.3253
2 -3.91519 -5.36293 15.1502
2 -6.70574 -0.895459 15.4975
3 6.68967 0.827184 -15.116
3 -6.82415 0.713358 -15.2444
3 -3.89629 5.3369 -15.2291
1 10.6526 14.0191 0.135867
3 10.8519 -4.82465 13.2301
3 10.5185 4.51717 -13.2708
1 -6.52977 16.3147 0.257439
3 -17.6261 2.63703 -0.0435147
2 -1.37932 11.6017 13.2861
1 -9.46588 7.06888 -13.3583
3 -10.5849 -14.052 -0.0100744
3 -10.8142 -4.6888 13.038
1 -10.6563 4.7265 -13.1308
3 6.4597 -16.2161 0.113173
2 -9.54418 -6.97905 13.1707
3 -2.6577 -9.43133 -13.286
1 17.3967 -2.08326 0.00562188
2 9.95504 -7.24925 13.2551
2 1.44821 -11.6571 -13.1654
2 1.49449 8.41903 15.2974
1 -6.63771 -5.45249 15.2216
1 -7.95817 -2.95968 15.1646
2 7.92017 3.0179 -15.326
3 -7.96585 3.27824 -15.4629
3 -6.72527 5.41867 -15.3133
2 16.3626 3.31153 -2.175
2 5.32732 15.6044 2.24178
3 -10.9275 12.1874 -2.31219
1 -16.2152 -2.89873 2.19298
3 -5.26065 -15.2818 -2.28637
2 10.5243 -12.2657 2.25148
1 5.27946 -3.18021 15.2062
1 -0.138267 -6.36618 -15.4063
2 14.7795 4.11341 -4.3078
2 3.88588 14.7757 4.54366
1 -10.7359 10.7418 -4.29006
3 -14.8833 -3.90872 4.31364
1 -3.8771 -14.6733 -4.39177
3 2.4489 -2.88845 15.0947
1 -1.5267 -3.89056 -15.3029
1 13.4811 3.429 -8.35343
3 2.59503 13.844 6.63104
3 -10.7073 9.19992 -6.51874
1 -13.6075 -4.82709 6.53401
3 -2.5562 -13.8433 -6.38415
3 10.737 -9.15435 6.57783
2 10.7696 7.80452 -8.8287
1 -10.8983 7.68256 -8.71916
1 -12.1635 -5.47557 8.65643
2 10.841 -7.66588 8.66308
3 -1.57185 -3.41948 15.2094
3 -3.75875 0.847623 -15.2895
3 10.6602 6.16929 -11.0194
3 -0.0280564 12.462 11.2232
2 -10.8891 6.32187 -11.0248
2 -10.8606 -6.12478 11.0516
1 -1.24739 -11.6688 -13.1482
2 10.8253 -6.24724 10.9436
3 -5.32509 -3.08605 15.0943
3 -5.21537 2.93729 -15.4934
3 -9.2322 13.2007 2.17887
1 -16.1401 -1.20274 -2.35739
3 -6.90892 -14.3452 2.1668
3 9.20162 -12.9883 -2.10569
2 14.6878 0.559041 4.48438
2 6.65407 13.4276 -4.41962
2 -8.22975 12.248 4.47785
1 -14.5789 -0.574227 -4.51025
2 -6.62426 -13.1255 4.40564
1 7.88485 -12.1798 -4.2617
2 13.4214 0.159876 6.86521
2 6.78567 11.6368 -6.49269
2 -7.06366 11.4005 6.93578
3 -13.4456 0.150473 -6.77843
2 -6.58242 -11.6543 6.65645
2 6.67646 -11.4311 -6.70631
1 12.0598 -0.535008 8.93488
2 6.67224 10.1162 -8.82186
3 -5.24081 10.6857 8.84231
2 -12.2908 0.740656 -9.09079
1 -6.68562 -10.1031 8.62319
3 5.21709 -10.5879 -8.72487
3 10.826 -1.43401 11.0455
2 6.70078 8.58654 -11.0141
3 -3.98541 10.1876 10.9886
2 -10.6233 1.47504 -10.9566
1 -6.71568 -8.52068 10.8841
2 4.05666 -10.0425 -10.8912
2 9.5078 -2.39788 13.2529
2 6.55643 6.89914 -13.2407
1 -2.63108 9.4894 13.2663
1 -9.31639 2.30666 -13.3312
3 -6.73952 -6.86708 13.1682
2 2.56703 -9.24808 -13.3104
1 15.0309 5.81381 -2.55762
2 2.65436 15.4892 2.20789
2 -12.2355 9.89474 -1.99487
1 -14.8282 -5.37352 2.09731
2 -2.50447 -15.3225 -2.20508
2 4.00188 -0.777929 15.2996
1 1.16807 -3.94013 -15.3627
2 13.3326 5.23602 -6.52489
2 -12.151 8.31431 -4.26752
2 -13.4161 -6.19505 4.0311
2 -1.12405 -14.525 -4.30238
3 12.0523 -8.38531 4.36099
2 -0.186523 -1.52345 -15.1804
2 -0.0680298 13.8968 6.51063
2 -12.0711 6.89949 -6.37829
2 -12.0719 -7.05957 6.43834
1 0.209124 -13.953 -6.32396
3 12.1017 -7.03248 6.47473
1 -1.04343 -0.945065 14.9715
1 -1.38631 13.1547 8.9841
1 -12.3969 5.43866 -8.99291
2 -10.7067 -7.67683 8.91558
2 1.47883 -12.9477 -8.56192
3 12.1115 -5.35385 8.92623
3 -4.15092 -0.68029 15.1855
3 -2.60175 3.11582 -15.4516
3 14.8357 3.9457 2.27001
1 3.78189 14.716 -2.25783
1 -10.9358 10.9858 2.2004
2 -14.7643 -3.75086 -2.22949
2 -4.18716 -14.5189 1.99281
2 10.6036 -10.75 -2.09779
2 13.6347 3.15677 4.34051
1 4.02532 13.1322 -4.53869
1 -9.36368 10.1723 4.85026
1 -13.3084 -2.96258 -4.55658
2 -4.00672 -13.0095 4.31893
1 9.27092 -9.81109 -4.35709
2 12.1396 2.40246 6.6444
3 4.14234 11.5386 -6.69971
3 -4.0663 -11.4904 6.48405