3598
 Atoms. Timestep: 6000
2 0.223264 -0.062848 -0.357457
3 2.80514 0.0282361 0.0262346
2 1.25039 2.24026 0.0620491
2 -1.56832 2.13606 -0.0181277
1 -2.83713 -0.102434 -0.207935
3 -1.37179 -2.17405 -0.12209
2 1.29085 -2.34919 -0.106289
2 1.51712 -0.730869 1.92835
2 -1.12807 -0.639428 1.9497
1 1.41406 0.943041 -2.44197
3 -1.28523 0.569833 -2.16329
1 5.30342 -0.0458711 -0.168967
1 2.66081 4.54273 0.119909
3 -2.72473 4.71787 -0.0225769
2 -2.92512 -4.79477 0.0415048
3 2.46261 -4.48622 -0.179524
2 2.79634 -1.15393 4.35727
2 0.0555437 2.99537 4.51521
2 9.81717e-05 -2.82159 -4.28418
3 2.91941 1.75389 -4.34991
3 -2.67795 1.61215 -4.496
1 4.17925 2.26716 -0.0572259
2 4.26611 -0.654129 2.2698
3 3.96202 0.921179 -2.22975
1 -0.0465693 4.80506 0.0388307
1 1.26718 3.53526 2.45037
2 2.74779 3.1627 -2.05126
1 -4.08679 2.3011 -0.0944801
2 -1.21388 3.68567 2.17357
1 -2.61997 2.96331 -2.13498
1 -4.06182 -2.3399 -0.127107
1 -3.83432 -0.696283 2.24861
1 -4.02686 0.753939 -2.32783
3 -0.0976277 -4.56694 -0.0935987
2 -2.67117 -3.05964 2.07574
2 -1.45741 -3.87454 -2.20573
3 3.88161 -2.39277 0.000361477
2 2.68306 -3.09476 2.1571
2 1.32339 -3.86789 -2.23964
2 0.00592069 -1.49126 4.0804
1 0.25857 1.29496 2.84396
2 1.71782 -0.275754 -4.90703
1 -1.51616 -0.693087 -4.35431
3 2.77452 1.45245 2.13275
3 -0.0437093 3.09752 -2.07043
1 -2.62261 1.55582 2.5469
3 -2.75892 -1.65587 -2.27937
2 -0.264543 -3.14654 1.99946
2 8.32134 0.289359 -0.243899
1 -3.88776 7.12491 -0.0504664
1 -8.104 -0.0276518 -0.122336
1 -4.06906 -6.99221 -0.0861852
3 3.95133 -6.83256 -0.113254
2 -0.203533 4.69997 6.45189
2 -4.37828 -2.28616 6.65279
3 -0.117924 -4.37277 -6.40612
3 -3.80831 2.59332 -6.38359
1 6.89599 -0.604667 1.98424
3 6.87104 0.704248 -2.27299
3 1.27301 6.81529 0.0855277
1 2.71027 6.11014 2.17882
3 4.0711 5.27858 -2.02958
1 -5.45103 4.54652 -0.36058
3 -2.63512 6.11996 2.00894
1 -3.89319 5.55192 -2.24203
3 -6.71796 -2.36002 0.0105978
1 -6.78966 -0.701191 2.11732
1 -6.72646 1.03849 -2.3185
1 -1.33239 -6.99406 0.00841338
3 -4.05459 -5.37663 2.36292
1 -2.61674 -6.15783 -2.19406
2 5.01312 -4.60052 -0.208022
2 4.08399 -5.35872 2.08832
3 2.73181 -5.99064 -2.18827
2 -1.39421 2.16962 6.55504
3 0.995819 -2.16335 -6.48224
2 -1.59999 -2.01611 -6.57458
3 1.42998 2.12175 -6.04882
1 5.33738 4.5979 0.0727713
2 5.38032 -1.48792 4.47799
3 5.62897 1.64907 -4.31122
2 -1.28007 7.09723 -0.123984
3 1.28805 5.34976 4.5941
1 4.23431 3.95999 -4.24501
2 -6.62642 2.28253 -0.0356336
2 -1.39035 5.30646 4.24453
2 -3.85006 4.12507 -4.29521
3 -5.42674 -4.75677 0.00632467
2 -5.54252 -1.37178 4.35966
1 -5.31653 1.4646 -4.42777
2 1.41309 -6.83363 -0.113268
2 -3.9757 -3.78305 4.30424
1 -1.29124 -5.36166 -4.40243
1 6.54442 -2.37981 0.106348
2 3.89734 -3.56181 4.57213
1 1.47034 -5.37616 -4.40076
1 1.52414 2.38654 6.3873
1 -1.37632 -2.31947 6.42681
2 -2.78545 -0.127059 6.59759
2 1.27209 0.318284 -7.90605
2 -2.92723 0.11531 -6.54747
1 5.58666 3.05785 -1.97906
2 -0.022187 6.32457 2.13045
2 -5.39863 -2.9661 2.05791
2 5.23945 -3.02981 2.22615
2 0.102868 0.0106107 6.48298
2 -0.646737 0.879167 -5.92529
1 5.4473 1.60968 2.22552
3 1.39956 5.44405 -2.05981
2 -4.11328 3.8973 2.15778
1 -5.53425 -1.38053 -2.14115
1 -1.48831 -5.46521 2.22039
1 3.88836 -3.70427 -2.29996
1 3.83984 0.956702 4.40444
2 1.39687 3.87904 -4.16767
2 -2.74064 2.9679 4.51229
2 -1.48138 -3.75199 4.2239
1 2.64268 -2.73357 -4.60049
3 3.96703 3.81325 2.24261
2 -1.18781 5.29975 -2.01151
3 -5.27945 1.56538 2.18522
2 -4.10042 -4.00404 -2.23323
1 1.24003 -5.22261 2.06712
2 5.32452 -1.49199 -2.21279
1 -1.28075 3.84386 -4.37333
1 -4.15989 0.802082 4.4679
2 -2.87007 -3.11533 -4.40358
2 1.40724 -3.68681 4.44968
1 4.24197 -0.539567 -4.40832
2 10.9537 0.0565538 -0.1796
3 5.5657 9.3671 -0.161832
1 -5.08959 9.51609 -0.12329
2 -10.7033 -0.0352271 -0.103032
1 -5.17416 -9.24166 -0.0392984
1 5.19645 -9.1557 -0.0151101
1 5.17241 -3.11884 8.64472
2 -0.122256 6.24299 8.98657
2 -5.36489 -2.98646 8.84187
2 -0.176291 -6.15911 -8.56148
3 5.32526 2.87382 -8.3375
3 9.53646 2.47202 -0.0759373
2 9.39245 -0.78558 2.00547
2 9.66241 0.732281 -2.2753
1 2.6561 9.34936 0.188406
1 4.03041 8.5382 2.17411
2 5.17138 7.60336 -2.0664
2 -6.76883 6.97746 -0.0854242
1 -3.90953 8.6454 2.27815
1 -5.25686 7.96063 -2.43959
1 -9.485 -2.30142 -0.209365
2 -9.20259 -0.672906 2.33134
1 -9.4589 1.06104 -2.36186
3 -2.64541 -9.13689 0.0277531
2 -5.43862 -7.79294 2.37464
1 6.63763 -7.02678 -0.0652024
3 5.31036 -7.72571 2.21229
2 3.94769 -8.35274 -2.10044
2 3.7829 -0.851315 8.47811
3 2.65988 -3.11238 8.88843
2 -1.47125 3.8134 8.75995
2 1.01054 -3.50312 -8.66438
1 -1.63518 -3.77859 -8.52738
2 2.61714 2.68062 -8.42822
1 8.07071 -1.63209 4.30809
3 8.32379 1.82186 -4.19989
2 0.0950766 9.2255 -0.143027
1 2.54837 7.65193 4.29517
2 5.46898 6.28089 -4.38209
3 -8.27085 4.90949 -0.035496
3 -5.14417 6.24803 -4.56986
3 -8.23384 -4.64688 -0.24849
3 -8.04113 -1.61572 4.43608
3 0.220009 -9.15706 -0.0335387
2 -5.54408 -6.00934 4.23107
1 -2.80243 -7.67997 -4.56547
2 7.74854 -4.71862 0.115339
2 5.24133 -5.92115 4.45177
2 2.80157 -7.65867 -4.42893
2 2.63007 1.56127 8.71256
1 -2.56939 1.59552 8.73324
3 0.0430627 2.94026 -8.69778
2 6.63571 6.82276 -0.066401
1 6.62014 -2.33517 6.6045
3 6.60572 2.37339 -6.43419
2 -2.49622 9.48538 -0.0659091
1 1.3277 6.99461 6.87712
2 5.39403 4.66833 -6.57472
2 -9.25703 2.48769 -0.0624659
2 -1.39565 6.97644 6.45326
2 -6.84442 -6.82638 -0.140067
3 -7.03454 -2.33463 6.60955
1 -6.60836 2.31233 -6.69891
3 2.59271 -9.19628 -0.00611579
3 -5.49203 -4.63875 6.6067
3 -1.45159 -7.15749 -6.68475
3 5.16185 -4.44889 6.63067
1 1.37755 -6.74764 -6.48501
3 1.27265 3.80843 8.66033
2 -2.92563 -3.02728 8.58689
3 -3.97122 -0.625174 8.75792
1 3.75905 0.52398 -8.40126
1 -2.898 3.44413 -8.62027
3 8.35275 3.31307 -2.15799
2 1.49978 8.37932 2.19277
3 -6.73126 5.70046 -2.43207
2 -8.19036 -3.22156 1.89328
3 -1.15408 -8.217 -2.36313
1 6.65835 -5.28056 2.1921
1 1.46964 -0.696512 8.5194
3 -0.347656 -1.50426 -8.55025
2 6.92271 3.99513 -4.15543
2 -0.17754 7.94598 4.37462
2 -6.76475 -3.81835 4.49144
2 -0.0271486 -7.51336 -4.41795
3 6.52652 -3.79163 4.31229
1 -1.46648 -0.757471 8.71721
2 -1.42111 1.12361 -8.44196
3 8.22095 1.64745 2.05257
3 2.36883 7.57081 -2.17425
3 -5.24659 6.26152 2.14804
2 -2.66345 -7.75202 2.34075
1 5.38306 -6.06831 -2.31947
3 6.75468 0.650042 4.25771
2 2.61575 6.28921 -4.20062
2 -4.15509 5.40609 4.5078
3 -6.7627 -0.855459 -4.28249
3 -2.63789 -6.10016 4.4432
2 4.26908 -5.04218 -4.35312
3 5.25055 0.06724 6.53965
1 2.76915 4.51655 -6.21108
2 -2.90652 4.48849 6.62457
3 -5.47086 0.174654 -6.6439
2 -2.80768 -4.58611 6.45728
2 2.41605 -4.34361 -6.60869
1 6.93751 5.4479 -1.87616
2 -1.35935 8.48046 2.23681
1 -7.94381 3.30312 -2.26892
2 -6.82677 -5.36954 2.16527
2 1.321 -8.13726 -2.24001
1 8.18985 -3.08835 2.12763
1 0.0280986 1.54684 8.75745
2 6.40082 3.71668 2.2773
3 0.134074 7.55775 -2.20623
2 -6.79779 3.70383 1.95419
3 -6.93539 -3.78548 -2.35502
1 -0.104867 -7.57702 2.26067
3 6.77526 -3.81291 -2.34103
2 5.2412 3.04736 4.51721
1 0.341074 6.07212 -4.2263
3 -5.62005 3.13725 4.09452
3 -5.386 -3.27033 -4.22881
2 0.016293 -6.20222 4.36361
1 5.44272 -2.86353 -4.54261
1 4.14549 2.30729 6.56877
2 -0.0593602 4.27978 -6.59155
3 -4.1786 2.23881 6.72136
2 -4.11014 -2.36293 -6.63953
2 -0.159598 -4.79238 6.6155
1 3.64034 -1.57715 -6.81684
2 5.28271 6.02319 2.09415
1 -2.52913 8.06735 -2.26145
1 -5.61971 -6.06666 -2.35349
2 2.75396 -7.49989 2.04347
2 8.11408 -1.64913 -2.34065
3 3.97708 5.49518 4.26818
3 -2.39052 6.29621 -4.30879
3 -6.80654 0.911501 4.38574
3 -4.17483 -5.4611 -4.3721
2 2.61326 -6.08448 4.26354
2 6.78462 -0.547011 -4.38762
1 2.75584 4.70233 6.50684
3 -2.66537 4.7607 -6.37917
3 -5.40073 -0.000991382 6.60752
2 -2.7439 -4.6666 -6.65055
1 2.57771 -4.35066 6.54418
1 13.5167 -0.0429863 -0.0462701
1 6.93953 11.8224 -0.0867093
2 -13.5132 -0.164297 -0.0355334
2 6.50535 -11.7882 -0.168545
1 6.69243 -3.60884 10.9652
2 -6.67534 -4.06483 10.8894
3 -0.199439 -7.78659 -11.0038
3 6.6054 3.75341 -10.5622
3 -6.80745 3.55756 -10.8895
2 12.0496 2.40988 -0.0751023
1 11.9722 -0.843138 2.0654
2 4.21544 11.4985 -0.00798578
2 5.24629 11.0004 2.21879
1 7.03291 10.145 -2.07736
1 -7.94948 9.26068 -0.0623241
3 -5.33211 10.814 2.13546
2 -6.62894 10.1247 -2.38532
3 -12.0683 -2.29969 -0.119276
1 -12.0843 -0.625123 1.99051
3 -12.2625 0.908903 -2.02991
2 -3.85985 -11.5128 -0.015201
1 -6.73229 -10.0724 2.14892
1 -5.52248 -10.7089 -2.1547
2 7.90092 -9.43983 0.105779
2 6.55821 -10.1128 1.92474
2 5.39058 -10.727 -2.18087
3 5.18178 -1.53293 10.9436
2 3.94553 -3.92981 10.9645
2 -2.84922 3.04369 10.9839
2 1.18447 -5.27039 -10.8751
2 -1.5012 -5.43997 -10.8914
1 4.10206 3.88441 -10.6345
3 10.6743 4.73792 -0.0671723
2 10.9194 -1.74722 4.30536
3 10.8132 1.53653 -4.48352
3 1.46482 11.6734 -0.0108558
2 4.21725 10.2296 4.42583
2 6.99033 8.51655 -4.24684
3 -9.41311 6.9575 0.042248
1 -3.85517 10.1182 4.31647
1 -3.72951 8.69332 -4.53191
3 -10.697 -4.64932 -0.221893
2 -10.8448 -1.39167 4.17919
2 -10.6929 1.27287 -4.59233
2 -6.80417 -8.36557 4.51758
2 -4.25949 -9.97404 -4.28851
2 9.28909 -7.16549 -0.014481
3 6.57248 -8.23742 4.43871
3 4.21661 -9.83221 -4.55105
2 3.90331 0.799234 10.9181
2 1.40473 -3.95813 11.1166
2 2.63404 -3.03164 -10.7979
2 1.45295 3.8844 -10.5284
3 9.51521 7.02453 0.0111171
2 9.38187 -2.37902 6.45155
2 9.0836 1.96066 -6.59979
1 -1.15962 11.8071 0.041197
3 2.929 9.11736 6.52621
2 6.85954 7.08056 -6.63832
1 -6.05854 6.72465 -7.19331
2 -9.70623 -6.95952 -0.226127
3 -9.4632 -2.17404 6.69517
2 -9.3533 1.9685 -6.71116
3 1.30633 -11.3931 -0.0284085
3 -6.7501 -6.87802 6.45278
2 -2.81089 -9.32511 -6.32912
2 10.4931 -4.93309 0.00624205
2 6.75922 -6.76072 6.52903
1 2.82045 -9.22268 -6.69003
3 2.39573 3.1283 10.7865
3 -1.19165 -3.69051 11.0679
1 -4.01621 0.927573 10.8657
3 3.98118 -0.762305 -10.8371
2 -4.08578 -0.86204 -10.8766
2 -1.4057 3.85231 -10.8165
2 8.10982 9.35853 0.0455396
2 7.98243 -3.14499 8.72727
3 7.7497 3.15343 -8.41612
3 -3.8629 11.8086 0.020376
2 1.33942 8.74348 8.76657
3 6.71432 5.44426 -8.60868
2 -11.8535 2.59825 -0.0162637
1 -2.64553 9.37925 6.59971
1 -6.74889 4.55425 -8.61308
2 -8.21762 -9.08675 0.0994804
1 -8.1531 -2.99293 8.75136
3 -8.39489 2.5847 -8.87684
2 3.81236 -11.4686 -0.0412067
3 -6.86145 -5.3359 8.60734
2 -1.45671 -8.54333 -8.85715
3 12.087 -2.43823 -0.14223
1 6.58751 -5.55135 8.71926
2 1.24837 -8.45797 -8.72896
2 1.14278 5.30612 10.9143
1 -4.05928 -3.86806 10.9345
3 -5.37839 -1.48624 10.8464
3 5.20575 1.4647 -10.6063
3 -5.54087 1.48434 -10.9453
2 -4.21206 3.75026 -10.7749
3 10.6901 3.05673 -2.22351
3 2.63287 10.8189 2.43879
2 -8.01757 7.86164 -2.2256
2 -10.7587 -3.04518 2.22514
1 -2.87059 -10.4717 -2.29103
2 8.08351 -8.02383 2.42388
2 2.62388 -1.59381 10.7813
1 -0.553565 -2.95097 -10.73
2 1.13492 10.0162 4.3432
2 -8.07754 6.57287 -4.43552
3 -9.61107 -3.72903 4.36328
2 -1.16144 -9.88228 -4.24509
3 8.00787 -6.16888 4.372
2 -0.1406 -1.50694 10.9777
2 -1.38203 -0.798946 -10.9047
2 8.00058 4.64405 -6.57247
3 0.149777 9.13227 6.51411
1 -7.36605 4.41579 -5.67792
1 0.209763 -9.36269 -6.50552
3 8.24423 -4.84154 6.46758
2 -2.76454 -1.54579 10.7874
1 -2.75156 1.53401 -10.6745
1 10.8124 1.71248 2.0937
2 3.89545 9.79881 -2.0257
2 -6.59075 8.53393 2.09698
3 -10.826 -1.47013 -2.21463
2 -4.01848 -10.0542 2.28285
1 6.73498 -8.57042 -2.31793
1 9.41924 0.809922 4.35721
2 4.25715 8.63975 -4.4152
1 -5.25758 7.75421 4.34826
2 -9.39239 -1.20486 -4.41152
2 -4.33058 -8.44958 4.574
2 5.3197 -7.59343 -4.62206
1 8.04866 -0.15416 6.72934
1 4.15111 7.20522 -6.42013
3 -3.99243 6.80652 6.58599
1 -8.13448 -0.229256 -6.65683
2 -4.20772 -6.75346 6.57273
2 3.95377 -6.72468 -6.77406
3 6.4964 -0.786827 8.76545
2 4.1062 5.50446 -8.61992
1 -6.91664 0.476468 -8.8697
3 -3.98871 -5.33417 8.62482
2 2.62144 -6.04135 -8.69587
3 9.54053 5.55046 -2.22652
1 0.0304959 11.0393 2.33354
2 -9.42081 5.53057 -2.22494
3 -9.62685 -5.50599 2.09059
2 0.14979 -10.519 -2.1524
1 9.40614 -5.68842 2.11422
3 1.36718 0.638193 11.0609
1 1.41029 -0.77516 -10.3905
2 8.23034 6.19928 -4.25578
1 -8.20143 1.95255 -4.60521
2 -8.35083 -6.01042 4.3335
3 9.33907 -4.0401 4.29415
3 -1.37801 0.816311 10.9538
3 -0.129958 1.45361 -10.6694
1 9.35075 3.94375 2.06088
3 1.50256 10.0053 -2.1882
2 -7.96827 6.22804 2.15722
3 -9.35997 -3.39274 -2.57234
1 8.16218 -6.00195 -2.50069
1 7.95185 3.17564 4.3904
2 -6.63611 5.55066 4.3022
3 -7.70421 -3.1991 -4.46278
2 -1.48485 -8.49157 4.37619
3 6.70022 -5.30629 -4.58117
2 6.74242 2.08935 6.63168
1 1.47342 6.90809 -6.50835
1 -5.56197 4.73606 6.71312
2 -6.5991 -2.31872 -6.49642
1 -1.5304 -6.97346 6.66601
2 5.37644 -4.42864 -6.56975
2 5.44206 1.37215 8.89789
3 -4.12635 3.98434 8.95232
1 -5.44574 -1.62143 -8.61968
3 -1.20388 -5.12782 8.96685
2 3.91265 -3.59217 -8.70554
2 8.2111 7.846 -2.16841
2 -2.47779 11.002 2.20056
1 -8.19081 -7.58721 2.21744
3 2.61944 -10.6255 -2.35473
1 11.0169 -3.36056 2.3027
3 -0.137517 3.07406 10.9888
1 2.54304 1.54868 -10.8035
1 7.91916 6.33554 2.50429
2 -1.19677 10.3786 -2.22286
2 -9.60526 3.99448 1.99589
2 -8.23932 -6.19629 -2.34654
3 1.17103 -9.9392 2.32793
1 9.23683 -3.73767 -2.34606
2 6.63619 5.27321 4.56078
1 -0.896521 8.6258 -4.22488
2 -8.02578 3.25906 4.26078
3 -6.84493 -5.48095 -4.52534
1 1.45394 -8.38276 4.48979
2 7.9204 -3.05115 -4.51851
2 -1.12954 6.80812 -6.43368
2 -6.72084 2.27806 6.51383
2 1.30174 -6.95912 6.54324
1 5.43423 -1.33779 -8.38434
1 4.0249 3.8301 8.57765
1 -1.21658 5.41357 -8.62585
1 -5.40757 1.59083 8.71683
2 -4.31068 -4.0207 -8.70423
2 1.49896 -5.34603 8.57568
2 -3.79479 10.1018 -2.19273
3 -10.6753 1.57528 1.98068
3 -6.94011 -8.45923 -2.0422
2 3.86979 -9.84294 2.03549
3 10.8319 -1.53798 -2.25694
2 5.32127 7.62869 4.28905
2 -9.36179 0.844302 4.41822
3 -5.49949 -7.681 -4.50477
3 3.91567 -8.30501 4.39564
3 9.53911 -0.685279 -4.41691
3 3.96729 6.87482 6.51306
2 -3.68266 7.11139 -6.39531
3 -8.13663 -0.03001 6.72155
3 -4.01868 -7.19709 -6.85651
2 4.05843 -7.13533 6.57878
3 -4.21736 5.48215 -8.52252
1 -6.66224 -0.834888 8.76392
3 -2.82554 -6.27434 -8.77682
2 4.02497 -5.38243 8.60205
2 6.60659 0.666625 -8.22129
2 16.0061 0.00704457 0.0129
1 -7.04709 11.8051 -0.421566
1 -16.1874 -0.0100643 -0.238183
1 -8.01922 -13.6737 0.156902
1 8.03475 -14.122 -0.280397
1 7.94441 -4.44819 13.1193
3 0.473159 9.5068 13.073
1 -8.16334 -4.51833 13.048
1 -0.131736 -9.31389 -13.0166
1 8.02394 4.54142 -12.7437
3 14.7386 2.25099 0.0567611
2 14.8628 0.907185 -2.16008
2 5.47536 14.0246 0.158735
3 6.81796 13.0374 2.19075
3 8.10717 12.4063 -2.32946
1 -9.71062 11.3613 0.11763
2 -6.69089 13.0501 1.86781
2 -14.7991 -2.36668 -0.126302
3 -14.8712 -0.771557 1.92747
2 -14.7732 0.523929 -2.31701
1 -5.48152 -13.6014 0.174729
2 -7.94572 -12.3162 2.42116
1 -6.79667 -12.9948 -2.14361
1 9.15904 -11.739 -0.0637897
2 7.68568 -12.4308 2.12645
2 6.5584 -13.4641 -2.16471
2 6.57348 -2.38454 13.1227
2 5.30108 -4.67203 13.2239
1 0.138539 8.22 10.8046
1 1.47383 -7.07019 -13.0954
1 -1.35027 -6.97468 -13.1298
1 5.44141 4.68927 -12.8206
3 13.4977 4.69212 0.0932717
3 13.4744 -1.55062 4.38871
1 13.5903 1.33159 -4.11493
1 2.61292 14.3313 0.0425171
1 5.41461 12.662 4.41504
1 8.10063 10.887 -4.5051
2 -12.0253 8.47908 2.48982
1 -5.39092 12.3229 4.3436
2 -8.21411 10.9452 -4.51695
2 -13.5632 -4.59456 -0.151197
2 -13.4893 -1.37077 4.20963
2 -13.5062 1.31353 -4.55437
3 -2.77434 -13.817 0.138832
2 -8.36176 -10.6957 4.60001
1 -5.45931 -12.4169 -4.28719
3 10.6405 -9.28119 -0.183821
2 7.99438 -10.3723 4.13591
2 5.2788 -12.5214 -4.51189
3 5.2543 -0.075455 13.0756
1 2.4977 -4.81423 13.205
1 2.78676 -4.5663 -13.1109
3 -2.7294 -4.62294 -13.0973
2 2.86149 4.55079 -12.7812
1 12.1047 6.88978 0.0611842
1 11.8194 -2.44532 6.54567
2 12.2456 2.2992 -6.69609
3 0.0813358 14.171 0.0970697
3 4.24455 11.6782 6.64701
2 8.37546 9.27865 -6.43477
2 -3.98049 11.481 6.74785
1 -7.9578 8.86766 -6.69639
3 -12.2024 -6.85705 0.0198992
1 -12.021 -2.20134 6.60172
2 -12.1078 2.17012 -6.57774
2 0.0221274 -13.67 0.0488187
2 -4.21076 -11.5921 -6.51408
2 8.00849 -9.28661 6.34189
3 4.26703 -11.6103 -6.61113
1 3.94067 2.38271 13.3191
3 -0.0357757 -4.53782 13.3902
1 4.1332 -2.38828 -12.9679
2 -4.01956 -2.25374 -13.2011
2 -0.0588857 4.67705 -13.0434
1 10.9617 9.38063 0.0290318
3 10.6517 -2.98543 8.69953
2 10.348 3.026 -8.53168
2 -2.53642 14.0843 0.179751
3 2.74356 10.9541 8.5976
2 8.09579 7.61227 -8.79309
1 -13.5933 4.56349 -0.0935986
3 -2.50122 10.7038 8.87075
2 -8.05146 7.39291 -9.01312
2 -10.7679 -9.53366 -0.122988
3 -10.8495 -3.12454 8.79271
3 -10.9003 2.81381 -8.77982
1 2.548 -15.207 -1.50843
1 -8.25961 -7.63336 8.70576
2 -2.84424 -10.8728 -8.85043
2 13.4494 -4.62802 0.025395
1 8.05966 -7.96913 8.61156
3 2.69847 -10.8564 -8.91211
2 2.59143 4.85848 13.0909
1 -2.59177 -4.6538 13.281
2 -5.30247 0.100543 13.2273
2 5.63197 0.101843 -12.8265
3 -5.35157 -0.163888 -12.9802
2 -2.74425 4.57782 -13.0007
2 9.51777 11.742 0.095245
2 9.23277 -3.81207 10.9812
2 9.20639 3.91848 -10.7868
2 -5.32898 14.2302 -0.209498
3 1.66632 10.4822 10.8721
2 -14.6238 2.18164 -0.171674
2 -1.36727 8.58542 8.47117
1 -8.15449 5.80689 -11.3474
1 -9.34945 -11.5347 0.0185329
2 -9.31237 -3.67245 10.9222
3 -9.53253 3.48548 -10.8338
2 5.00028 -14.1658 -0.0449005
3 -8.28735 -5.98644 10.7706
3 -1.69539 -10.2098 -11.0774
2 14.8259 -2.34053 0.0295479
3 7.86366 -6.16463 10.8026
2 1.35076 -9.94484 -10.9328
2 -5.3497 -4.50784 13.1675
2 -6.64806 -2.20501 13.1951
2 7.81809 1.47146 -10.8787
1 -6.78668 2.20143 -13.2211
1 -5.81416 4.78844 -12.9618
1 4.05098 13.3266 2.05968
2 -9.28633 10.1076 -2.31696
2 -13.3683 -2.94623 2.16331
2 -4.1648 -12.9239 -2.04543
2 9.49911 -10.2888 1.98285
1 3.95325 -2.48304 13.2808
3 -0.0221395 -4.73569 -13.0445
2 11.9818 3.91942 -4.11093
1 2.60574 12.3992 4.37467
2 -9.54853 8.63386 -4.41928
2 -12.0643 -3.78915 4.38033
3 -2.75453 -12.2732 -4.37367
2 1.39157 -2.3256 13.434
2 -1.59464 -2.42102 -13.073
2 10.6685 4.41798 -6.48952
3 1.3909 11.3615 6.76405
1 -9.00928 6.42949 -6.6667
2 -10.7731 -4.47214 6.73682
2 -1.62816 -11.5519 -6.60582
2 9.33797 -7.07813 6.42738
1 -1.39001 -2.22963 13.3144
2 -2.85482 0.142507 -12.9296
3 9.45588 5.29103 -8.61204
2 -0.0982882 10.9236 8.93754
2 -9.39725 5.03091 -8.73122
3 -9.59956 -5.35393 8.85897
1 0.0182813 -10.8974 -9.06044
1 9.39902 -5.44152 8.72763
2 -4.04148 -2.11009 13.0466
3 -4.02932 2.53914 -12.8197
2 13.4209 1.27594 2.09363
1 5.49326 12.6408 -2.21144
1 -7.89458 10.9617 1.87937
2 -13.2704 -1.51178 -2.21162
3 -5.39271 -12.2899 2.33214
1 7.90492 -10.8743 -2.53682
1 12.065 0.772648 4.35075
1 5.27582 10.9346 -4.17443
3 -6.89425 10.0761 4.34077
2 -12.0555 -0.909217 -4.59272
2 6.72817 -9.89891 -4.6988
3 10.7099 -0.0779701 6.17385
1 4.24409 10.0797 -8.57728
1 -5.28499 9.43049 6.38298
3 -10.8073 -0.138949 -6.86039
3 -5.40104 -9.31627 6.75654
3 5.33814 -9.08587 -6.74201
1 9.32023 -0.731978 9.03101
2 5.38658 7.86013 -8.81402
2 -5.48056 -7.3892 8.6463
1 3.99024 -8.42004 -8.79199
3 5.42604 6.19728 -10.7122
2 -1.47784 5.3478 11.1044
3 -8.13615 1.4109 -10.9841
3 -5.30292 -6.14514 10.7577
2 13.3376 3.11766 -2.08388
2 1.60395 13.2803 2.12976
3 -10.7809 7.55118 -2.37156
1 -12.3141 -5.31862 1.99272
2 -1.377 -12.7497 -2.00455
2 2.83893 -0.110009 13.0183
1 1.14992 -2.21375 -13.0044
2 11.0932 6.26741 -4.30558
2 -0.0337849 12.4668 4.41436
2 -10.6533 5.90184 -4.45975
2 -0.0391971 -12.1895 -4.43789
2 10.7899 -6.11113 4.33983
3 0.107784 -0.0397348 13.2503
1 -0.232693 -0.095643 -12.9646
3 9.57208 6.77034 -6.59067
3 -1.09908 11.6085 6.61505
2 -10.7703 4.32479 -6.69122
2 -9.54693 -6.98488 6.49191
2 1.26777 -11.5242 -6.65423
3 10.7424 -4.7907 6.79742
1 -1.31998 2.23575 -12.9251
2 12.3351 4.09834 2.15715
2 2.71874 12.3997 -2.12323
3 -9.4491 8.61427 2.14058
3 -12.3141 -3.93944 -2.4142
2 -2.71941 -12.3736 2.14057
1 9.51409 -8.09303 -2.2307
1 10.6865 3.143 4.44966
3 2.69086 10.6861 -4.20624
2 -8.1164 7.87717 4.05541
2 -2.69787 -11.059 4.37043
3 8.07452 -7.70182 -4.50679
3 9.24559 2.3714 6.59865
2 2.80371 9.38261 -6.50012
2 -6.62245 7.12374 6.40104
3 -2.97169 -9.36243 6.77855
1 6.72377 -6.72698 -6.73183
1 7.97288 1.60997 8.98413
1 -2.71847 5.94874 8.6931
3 -2.7728 -7.64002 8.90936
2 5.30924 -5.99589 -8.89818
2 6.61965 0.593977 10.9464
2 2.81592 6.37918 -10.644
2 -6.71529 -0.916899 -10.8991
2 -2.56397 -6.09184 10.905
2 4.04244 -5.43254 -10.9732
2 11.0162 7.74593 -2.09734
1 -1.3197 13.3073 2.48271
1 -12.0998 5.30322 -2.24062
2 -10.8894 -7.77109 2.15045
2 1.35773 -12.8581 -2.08033
3 12.0786 -5.79275 1.96403
2 1.30089 2.20475 13.1239
2 2.78788 -0.0870713 -12.8848
1 9.76958 8.42639 -4.42086
2 -2.63791 12.3607 4.60325
2 -11.8738 3.46419 -4.30046
2 -9.60966 -8.45287 4.54306
2 2.52411 -11.9141 -4.52343
1 -2.7462 0.153758 13.2686
2 1.17296 2.01084 -12.7913
2 10.7958 6.25948 2.47025
3 -0.0734818 12.6077 -2.26372
1 -10.6802 6.36817 2.2388
1 -10.8696 -6.22021 -2.3753
2 9.43918 5.33523 4.40516
3 0.313062 10.901 -4.19328
3 -9.45855 5.58507 4.2724
2 -9.49134 -5.16065 -4.46917
2 -0.194959 -10.9743 4.28413
3 9.27604 -5.17698 -4.68029
2 8.17305 4.65077 6.57558
3 0.316661 9.26723 -6.44364
2 -8.06809 4.70537 6.32886
2 -8.12757 -4.59118 -6.63908
2 -0.0967672 -9.32457 6.57094
3 8.17526 -4.47509 -6.63168
1 6.7219 4.01282 8.98888
2 0.111394 7.80102 -8.66209
2 -6.72047 3.87057 8.94739
2 -6.87546 -3.89725 -8.75266
2 0.0840215 -7.63547 8.84576
2 6.69052 -3.61229 -8.4946
3 5.19585 2.97432 10.8103
2 -0.0193712 6.17526 -10.6473
1 -5.64668 3.28052 11.3168
2 -5.4859 -3.04739 -11.0467
1 -0.00386207 -6.05213 11.0309
2 5.38005 -3.1851 -10.9614
3 -3.81703 13.1051 2.33043
3 -9.33008 -9.98045 2.31129
2 13.4224 -3.21698 2.23191
2 -0.061605 4.4268 13.1441
1 4.15164 2.33759 -12.8443
3 9.80115 8.59769 2.24979
2 -2.67533 12.5004 -2.37187
3 -12.0779 3.95284 1.9566
3 -9.67165 -8.42958 -2.2386
2 2.43108 -12.3339 2.05749
1 11.603 -4.19422 -2.0638
1 6.9978 9.94279 4.2415
3 -2.38086 10.8096 -4.38347
1 -10.7871 3.36432 4.04687
1 -8.03018 -8.24222 -4.3481
2 2.64184 -10.5498 4.37965
1 6.80448 6.78853 6.52059
2 -9.48826 2.43541 6.57901
2 -6.67107 -7.17313 -6.55592
1 9.59826 -2.4057 -6.57259
3 5.4302 5.98259 8.65083
2 -2.60735 7.52006 -8.63696
2 -7.95989 1.41113 8.91055
2 2.63359 -7.81579 8.66218
1 8.06242 -1.67095 -8.54554
1 3.80242 5.49279 10.6897
2 -2.78952 6.18025 -10.9182
2 -6.44622 0.798708 11.1291
2 -4.09311 -5.31716 -10.9435
2 2.57819 -6.23491 10.9296
3 6.64803 -0.883199 -10.6838
3 -5.27057 12.8283 -2.24721
2 -13.2039 1.67721 1.93203
2 -8.25965 -10.6891 -2.44758
3 5.00839 -12.2571 2.12332
2 13.4995 -1.50296 -2.20867
2 6.66041 8.47458 2.05998
2 -5.40364 11.192 -4.43602
3 -11.983 0.759797 4.25971
1 5.32654 -10.4233 4.17564
2 12.1377 -0.687621 -4.52588
1 5.41326 9.17705 6.51639
1 -5.1326 9.18954 -6.66559
3 -10.9045 0.341456 6.78128
2 -5.43712 -9.45253 -6.70464
1 5.25754 -9.30949 6.56312
2 10.7608 -0.0535532 -6.55454
2 3.86726 8.36942 8.69565
3 -9.53522 -0.47905 9.0749
2 -4.10581 -8.54083 -8.96301
3 5.28679 -7.93693 8.85738
1 9.19269 0.526278 -8.86741
2 2.70034 7.78268 10.8385
2 -5.81698 6.17429 -10.7846
2 -8.11444 -1.48633 10.9794
3 -2.92715 -7.71961 -11.0844
2 5.36533 -6.33116 10.865
2 18.6063 0.0577677 0.00422829
3 9.91391 15.9015 0.176401
3 -9.80072 16.3188 0.351165
2 -18.9318 -0.0498074 0.0107657
1 9.48874 -16.477 -0.263013
1 9.42161 -5.54469 15.2263
1 0.620994 11.0697 15.1963
3 -9.51016 -5.07206 15.1167
2 0.0585998 -10.8361 -15.4382
1 9.73421 5.74141 -14.9429
1 -9.56312 5.55685 -14.8328
1 17.3393 2.37373 0.00357404
2 17.4143 -0.575067 2.19298
3 17.5304 0.822718 -2.03917
2 6.92927 16.2554 -0.0465629
2 8.11985 15.3187 2.3138
2 9.51045 14.5505 -2.05004
1 -10.7834 13.8589 0.561421
1 -8.61179 14.8325 2.17711
2 -9.61312 14.5704 -1.50944
2 -17.6769 -2.23927 -0.0332083
3 -17.4897 -0.707578 2.00153
3 -17.4546 0.506709 -2.42722
3 -6.81198 -16.0264 0.0313389
3 -9.43179 -14.6283 2.18
2 -7.86999 -15.1726 -2.14685
3 10.4507 -13.953 -0.185071
1 9.19928 -14.8284 1.96773
1 8.04938 -3.03244 15.4317
2 6.65184 -5.55941 15.3009
2 1.45289 -8.65299 -15.4059
1 6.94673 5.45445 -15.0064
3 15.9577 4.6483 0.062204
2 16.0715 -1.45428 4.18808
3 15.9961 1.77015 -4.28704
1 5.28711 15.7622 2.13859
2 6.7171 14.6091 4.17608
1 9.75893 13.1771 -4.31446
2 -12.3078 11.365 0.329577
1 -6.98576 14.7826 4.1463
2 -9.21147 12.9397 -3.62614
1 -16.0524 -1.50908 4.24199
1 -16.2311 1.47838 -4.39917
1 -3.8136 -16.1961 0.0240581
2 -9.69621 -13.1023 4.4882
3 -6.69954 -14.6834 -4.38386
2 11.7171 -11.6267 0.136088
2 8.90358 -13.4882 4.10843
3 6.64991 -14.7838 -4.40937
1 4.13933 -5.54795 15.3796
1 3.02025 -6.11103 -15.2762
2 -2.65733 -6.0824 -15.381
1 3.9725 5.55746 -14.9522
2 14.8849 6.83265 -0.399736
1 14.6502 -2.51353 6.41492
1 14.5487 2.43136 -6.55822
2 0.48951 16.7174 -0.939293
1 5.52213 13.9722 6.67552
2 9.73978 11.5384 -6.47214
3 -13.3073 9.15284 0.1392
2 -5.33352 13.7056 6.68589
2 -9.41781 11.2807 -6.58954
2 -14.854 -6.85256 0.0901187
2 -14.8755 -2.14699 6.46509
1 -14.9853 1.94466 -6.65279
3 -1.31168 -15.9987 0.0210611
2 -9.55926 -11.6595 6.61376
3 -5.48701 -13.8285 -6.73985
2 13.3093 -9.22175 -0.0558843
2 9.12669 -11.6042 6.35011
1 5.45815 -13.677 -6.56718
1 1.15781 -5.52355 15.4334
2 -4.1839 2.37378 13.3988
3 4.11832 -3.71195 -15.2623
3 -4.06204 -3.8066 -15.3327
3 13.626 9.0225 -0.0105547
1 13.4023 -3.42939 8.88239
1 4.20451 13.1158 8.84564
2 9.62204 10.2875 -8.85082
2 -14.8736 6.98487 -0.156597
3 -4.01029 12.9886 8.79088
2 -13.5056 -9.36855 -0.0128632
2 -13.553 -3.15446 8.83237
2 -13.4193 2.84482 -8.55847
2 -9.72204 -10.0723 8.74147
3 -4.19139 -13.1979 -8.73611
1 14.6543 -6.83176 -0.0740274
3 9.3386 -10.358 8.48545
3 3.95468 -13.1536 -8.67097
2 3.97723 3.94119 15.3212
3 -1.38418 -5.40242 15.6448
1 -8.42003 1.62934 15.2873
3 5.36394 -1.4175 -14.9036
3 -5.30523 -1.59758 -15.3506
1 -1.29208 5.39416 -15.1653
3 12.171 11.6837 -0.097031
1 12.0792 3.82141 -10.6045
1 -3.93151 16.3342 0.179567
3 3.00557 12.4167 10.9798
1 -16.314 4.69218 -0.0833096
2 -2.24146 12.4271 11.2097
3 -9.3869 8.22916 -11.1062
2 -12.5311 -11.7633 0.0958181
2 -12.209 -3.68787 11.0024
2 -12.0559 3.59221 -10.8395
2 -9.31681 -8.38545 10.8247
2 16.0293 -4.70819 -0.113423
2 2.70579 -12.4121 -11.1304
3 2.88992 6.24897 15.2057
1 -3.98313 -5.31987 15.3618
1 -6.67492 -0.478085 15.6834
3 6.83107 0.962418 -14.9841
1 -6.61937 0.51412 -15.5044
3 11.1563 13.8932 -0.127052
1 10.5889 -4.84483 13.0447
2 10.582 4.67925 -12.995
2 -7.16113 15.8436 0.186427
3 1.69711 11.7587 12.8271
2 9.5193 7.06671 -12.9968
1 -17.6845 2.31072 -0.350868
3 -0.714068 12.0618 13.1585
2 -10.7114 -13.9525 0.0529502
2 -11.0334 -4.47142 13.0667
2 -10.8806 4.2979 -13.1362
2 6.97131 -16.2596 -0.0197954
2 -9.51119 -6.8189 12.9051
2 -1.21623 -11.5539 -13.3113
3 17.3472 -2.4071 0.0336694
2 9.35514 -7.23395 13.1866
3 1.38299 -11.6594 -13.3163
3 1.34589 8.70777 15.2933
1 -6.65006 -5.08556 15.324
2 -8.13414 -2.85688 15.4682
3 7.96645 3.17754 -14.9561
1 -8.06174 3.15846 -15.2128
2 -6.89778 5.42901 -15.3655
1 16.0522 3.37948 -2.00925
1 2.58406 15.6993 2.30076
2 -11.0571 12.2364 -1.89255
2 -16.3634 -2.98135 2.1397
2 -5.43267 -15.1898 -2.10887
3 10.5744 -12.4543 2.33093
3 5.32115 -3.22659 15.5051
2 0.0828413 -6.11372 -15.1618
2 14.8314 3.90785 -4.07914
3 -10.8415 10.8919 -4.20284
2 -14.8347 -3.79777 4.44105
3 -4.13636 -14.6364 -4.29614
2 10.6089 -10.867 4.36716
1 2.80849 -3.20894 15.5518
1 -1.36426 -3.88738 -15.38
1 13.3137 4.61784 -6.29875
3 2.93084 14.1794 6.81539
1 -10.5404 9.04691 -6.97621
1 -13.3949 -4.72071 6.50123
1 -2.9548 -13.8066 -6.55342
1 10.4685 -9.21964 6.28267
2 -0.0715479 -3.19215 15.5333
1 -2.70572 -1.57623 -15.3755
1 11.9491 5.30614 -8.55284
2 1.52927 13.108 8.85333
3 -10.6182 7.35577 -8.91267
2 -1.36502 -12.9239 -9.05059
1 10.5706 -7.92654 8.75436
2 -2.76275 -2.91078 15.6147
1 -3.93793 0.679189 -15.1034
3 10.7485 5.97922 -10.7825
3 0.537062 12.6061 11.0579
3 -10.7493 5.87288 -11.0489
3 -10.7835 -6.07452 10.8059
2 0.052715 -12.3443 -11.1386
2 10.5807 -6.61131 11.0669
2 -5.38679 -2.72358 15.4189
1 -5.2324 3.14846 -15.2605
2 16.0937 1.70495 2.08592
1 6.94712 14.9364 -2.35484
2 -16.0912 -1.7011 -2.36389
1 -6.74199 -14.7174 2.24704
1 9.31462 -13.119 -2.46065
2 14.6908 0.746179 4.22976
1 6.7039 13.362 -4.43336
2 -8.47187 12.3799 3.62314
2 -14.9969 -0.850702 -4.69819
1 -6.70462 -12.7748 4.50512
1 7.94279 -12.4057 -4.64284
1 13.3944 -0.0315872 6.55618
2 6.80331 11.4063 -6.56853
3 -6.80185 11.6044 6.56166
1 -13.5275 -0.123496 -6.73312
1 -7.14474 -11.4222 6.93256
2 6.77478 -11.3806 -6.85682
3 12.1969 -0.884924 8.76169
3 6.90182 9.89951 -8.79805
2 -5.36644 10.6862 8.61304
2 -12.1526 0.512271 -8.93533
2 -6.88309 -9.89132 8.76166
1 5.24377 -10.8368 -8.79234
2 10.5605 -1.46753 10.883
2 6.8045 8.48994 -11.0897
2 -3.86134 9.92415 10.8287
1 -10.794 1.20876 -10.8184
2 -6.73176 -8.28754 10.9457
2 4.00479 -10.1958 -10.8594
3 9.44813 -2.30396 13.1585
1 -1.64437 10.0615 11.9078
1 -9.41127 2.24685 -13.1313
3 -6.66801 -6.80302 13.0469
2 2.59765 -9.57687 -13.2134
2 -11.8898 9.8723 -2.19451
2 -14.9877 -5.30158 2.18485
2 -2.81606 -15.2472 -2.03889
1 11.8816 -9.91845 2.27365
2 6.57303 -0.859428 15.4398
1 1.34384 -3.6995 -15.2456
2 12.2692 5.44434 -2.12113
3 1.24937 14.9233 4.60279
2 -12.0565 8.3568 -4.51062
2 -13.4904 -6.0364 4.28488
1 -1.53279 -14.5116 -4.25574
2 12.034 -8.67181 4.29998
1 1.47088 -0.764843 15.5745
2 -0.0134612 -1.43437 -15.0392
1 12.2603 7.05629 -6.47464
1 0.389029 13.6738 6.61768
3 -12.0378 6.85651 -6.56262
3 -12.1903 -7.13563 6.52529
2 0.0255979 -13.845 -6.70775
2 12.048 -7.132 6.59492
3 -1.32064 0.762981 -15.0983
3 10.9194 7.93596 -8.60193
1 -1.27397 13.0524 8.88104
3 -12.0839 5.28854 -8.7306
1 -10.8731 -7.6349 8.76168
2 1.35981 -13.071 -8.9084
2 11.9228 -5.50146 8.83691
3 -4.08115 -0.502068 15.4482
2 -2.85367 2.99309 -15.2438
1 14.7398 3.94964 2.25976
2 4.09111 14.8 -2.10261
2 -10.5589 10.9701 2.5922
1 -15.1232 -3.93864 -2.3179
2 -4.20532 -14.6908 2.09472
2 10.7409 -10.5215 -2.32521
3 13.266 3.24338 4.31763
2 -13.2899 -3.16891 -4.68631
3 -4.06281 -13.3381 4.25069
2 9.52031 -9.7874 -4.43643
2 12.0407 2.15156 6.44623
3 4.2433 11.5524 -6.26066
2 -8.16617 9.45931 6.57826
1 -11.9604 -2.41254 -6.79493
2 -4.33449 -11.5031 6.55662
3 8.04756 -9.13975 -6.69475
2 10.6009 1.49806 8.56427
3 2.84793 7.84048 -8.51182
1 -4.60517 8.15778 8.87031
2 -10.8313 -1.97289 -8.93526
2 -4.02937 -9.83597 9.04817
2 6.81996 -8.27604 -8.78794