3043
 Atoms. Timestep: 6000
2 -0.0230909 -0.0386505 -0.0165411
3 2.60051 -0.0742051 -0.119132
2 1.33555 2.27796 0.0657669
2 -1.40813 2.34489 0.0203476
3 -2.76107 -0.0251276 -0.0512124
2 -1.36944 -2.29484 -0.0209541
2 1.34255 -2.35877 -0.0226746
1 1.33388 -0.818861 2.14338
3 -0.133211 1.56707 2.15937
2 -1.3116 -0.755893 2.03543
2 -0.00921446 -1.58775 -2.19061
3 1.20003 0.739686 -2.21573
2 -1.40506 0.745709 -2.26078
2 5.34604 -0.136457 -0.0894433
2 2.75013 4.70908 -0.0165073
1 -2.56825 4.68435 -0.00900932
3 -5.51821 -0.0255907 0.0343343
1 -2.77337 -4.68484 0.141544
2 2.69258 -4.70838 -0.016871
1 2.68338 -1.65358 4.4187
3 -0.0601518 3.17838 4.50569
2 -2.87219 -1.44449 4.43962
1 0.0405613 -3.20422 -4.40142
1 2.72932 1.53482 -4.42719
2 -2.87203 1.6424 -4.38111
2 3.98382 2.25568 -0.152002
2 4.17853 -0.874246 2.09351
2 3.85041 0.672849 -2.27419
1 0.0875308 4.65742 0.0176325
2 1.37056 3.81412 2.23738
2 2.54588 3.10966 -2.28014
1 -4.12347 2.27513 -0.00248363
2 -1.31062 3.83342 2.24036
1 -2.72114 3.19399 -2.28948
2 -4.18769 -2.28458 0.0824911
2 -4.12701 -0.813238 2.25281
3 -4.22234 0.848511 -2.28225
2 0.0413574 -4.81668 -0.0454294
2 -2.76487 -3.11338 2.23872
2 -1.26642 -3.97032 -2.26834
3 3.95772 -2.38793 -0.0371422
3 2.68063 -3.17458 2.32308
2 1.47855 -3.99426 -2.29181
1 1.35663 0.860882 4.41015
2 -0.0374272 -1.50857 4.34237
1 -1.40613 0.905166 4.44966
1 1.19762 -0.828987 -4.3257
2 -1.43648 -0.679163 -4.52972
1 -0.229687 1.58513 -4.5197
2 2.71391 1.37086 2.27144
1 0.0113598 3.12879 -2.22035
1 -2.75865 1.53536 2.20038
1 -2.69782 -1.46073 -2.11838
3 -0.124643 -3.21839 2.1388
3 2.62899 -1.65039 -2.21996
2 8.08832 0.029107 0.0810906
1 4.01938 7.08328 -0.122076
2 -3.79699 7.00013 0.204611
1 -8.09957 -0.0543038 0.0708939
1 -4.08868 -6.95959 0.0698962
2 4.14726 -7.04022 0.0352811
2 4.10293 -2.48215 6.61289
1 -0.0276433 4.70253 6.79753
2 -4.06655 -2.3365 6.52774
3 0.0204031 -4.65068 -6.68093
2 4.10181 2.30043 -6.5545
2 -4.05998 2.45105 -6.57539
2 6.73869 2.27607 -0.038527
3 6.69877 -0.798841 2.17096
1 6.61605 0.687983 -2.17201
2 1.44854 7.20424 -0.0111986
3 2.68741 6.2146 2.17168
3 4.18739 5.50812 -2.26951
2 -5.39164 4.63993 -0.00430165
1 -2.65021 6.18846 2.27777
2 -3.94823 5.29593 -2.17305
2 -6.74301 -2.46239 -0.0225177
1 -6.65592 -0.832993 2.10603
2 -6.86362 0.644624 -2.02728
1 -1.28419 -7.1022 -0.0594792
2 -4.03842 -5.53982 2.25418
2 -2.68832 -6.21928 -2.22299
1 5.34279 -4.73383 -0.0984088
2 3.93977 -5.46359 2.29748
3 2.64528 -6.23995 -2.1018
1 2.62427 0.0413916 6.73096
2 1.31832 -2.25985 6.63024
2 -1.23705 2.21448 6.70165
1 1.40457 -2.47191 -6.56412
1 -1.20679 -2.40599 -6.68562
2 1.51564 2.4171 -6.75095
1 5.35214 4.68019 0.0194301
1 5.36036 -1.55311 4.50461
3 5.29462 1.52661 -4.34759
2 -1.16368 7.17326 -0.106704
1 1.4135 5.50543 4.65417
1 4.1303 3.79155 -4.38686
1 -6.79484 2.30415 0.0538504
2 -1.20635 5.43936 4.45367
2 -4.22826 3.84248 -4.31112
3 -5.33873 -4.60281 0.0466281
3 -5.39623 -1.68301 4.60667
3 -5.59821 1.6001 -4.41526
2 1.48898 -7.10133 0.0675708
3 -4.03663 -3.94717 4.35906
1 -1.19541 -5.51465 -4.39462
1 6.79586 -2.46876 -0.0213695
1 4.13702 -4.06479 4.38819
1 1.38961 -5.61693 -4.40999
2 1.39319 2.42241 6.67598
1 -1.34425 -2.37663 6.5491
2 -2.67503 -0.150779 6.71146
2 2.6292 0.0446056 -6.60669
2 -2.68202 0.253783 -6.58098
2 -1.33889 2.51077 -6.70109
2 5.31929 3.1471 -2.26528
2 0.170912 6.27156 2.27028
1 -5.60398 3.23921 -2.28346
3 -5.39673 -3.32468 2.13323
2 0.187895 -6.28205 -2.13347
2 5.32458 -3.16577 2.08767
1 0.0658117 0.0846573 6.56665
2 0.125329 0.146095 -6.69613
1 5.36281 1.30284 2.09335
1 1.30374 5.49663 -2.15651
2 -4.07857 3.7869 2.30491
2 -5.45916 -1.59633 -2.16423
2 -1.41073 -5.4221 2.15889
3 4.05962 -3.94128 -2.17299
1 3.99375 0.812953 4.29989
1 1.27422 3.90616 -4.47342
2 -2.73246 3.20231 4.56111
2 -4.01886 -0.760712 -4.25291
2 -1.48704 -4.02414 4.43607
1 2.71596 -3.1826 -4.41249
2 4.02201 3.92402 2.28102
3 -1.29333 5.41075 -2.27331
2 -5.42635 1.48933 2.07068
3 -4.07994 -3.97615 -2.17907
2 1.27056 -5.41299 2.17396
1 5.25578 -1.56301 -2.2061
3 2.74411 3.19403 4.53778
3 -1.37382 3.92362 -4.41717
1 -4.17067 0.756622 4.38743
2 -2.71945 -3.27936 -4.44662
2 1.27983 -3.93077 4.31743
3 3.9753 -0.809332 -4.45477
2 10.7733 0.00944476 0.0810323
1 5.43336 9.4423 -0.0336512
3 -5.20166 9.32361 0.053919
2 -10.7932 0.0711408 -0.00377051
2 -5.35641 -9.32443 0.076525
1 5.43526 -9.27357 0.320766
2 5.23173 -3.05104 8.82288
2 -0.00757883 6.30815 8.84376
2 -5.45899 -3.09964 8.86835
3 0.147769 -6.27219 -8.75476
1 5.42865 3.28371 -8.86515
2 -5.39312 3.15212 -8.85266
2 9.39839 2.41161 -0.0272473
2 9.53971 -0.745082 2.30532
1 9.36437 0.664641 -2.04257
1 2.79618 9.66258 0.0265625
1 4.0605 8.44727 2.18692
2 5.28174 7.7519 -2.1551
2 -6.67969 7.06819 0.116899
1 -4.04079 8.59682 2.25069
1 -5.32425 7.82063 -2.11863
3 -9.32413 -2.29279 0.0819193
2 -9.53215 -0.786276 2.33247
3 -9.50695 0.810134 -2.15866
3 -2.8214 -9.27724 0.0663016
1 -5.51066 -7.91022 2.17982
1 -4.05322 -8.54626 -2.18103
2 6.87148 -7.15031 0.0136899
2 5.39219 -7.81758 2.41168
1 4.04765 -8.66589 -1.98344
2 3.90287 -0.669309 8.87466
2 2.61283 -3.12929 8.87125
2 -1.48749 3.8208 8.89497
2 1.5282 -3.91069 -8.82052
2 -1.41161 -4.12417 -8.75705
2 2.63244 3.1891 -8.83132
3 7.99756 4.66306 0.168818
1 7.97109 -1.51333 4.49288
3 8.16001 1.54393 -4.43212
3 0.0746322 9.53611 0.0120617
3 2.66489 7.83404 4.47414
2 5.40923 6.19237 -4.57639
3 -8.18545 4.74293 -0.0526746
1 -2.69006 7.8042 4.42053
1 -5.37418 6.11739 -4.43681
1 -8.25206 -4.70032 0.0461934
1 -8.14208 -1.66305 4.3065
2 -8.13723 1.66584 -4.3239
1 -0.100917 -9.36784 0.118851
1 -5.38487 -6.30484 4.40383
3 -2.61537 -7.91779 -4.5128
3 8.02929 -4.80196 0.0672156
2 5.34339 -6.16578 4.4743
1 2.74395 -7.94264 -4.35857
3 2.57703 1.64991 8.81197
1 -0.0988597 -3.2134 8.79065
2 -2.88578 1.51692 8.72664
2 2.67042 -1.46131 -8.97941
2 -2.67866 -1.63782 -8.7147
3 -0.0742721 3.18533 -8.97194
2 6.84818 7.07338 0.124417
3 6.62099 -2.14941 6.70002
1 6.79757 2.25924 -6.53621
2 -2.63593 9.38105 0.0658081
3 1.38901 6.9947 6.71502
1 5.43337 4.69883 -6.65209
2 -9.39319 2.52086 -0.0340196
1 -1.34195 7.13096 6.59819
2 -5.36488 4.74973 -6.59965
1 -6.80847 -6.96188 -0.0377769
2 -6.7523 -2.38142 6.67465
3 -6.77881 2.437 -6.57559
2 2.79438 -9.53657 0.125968
3 -5.34453 -4.74259 6.82363
1 -1.25623 -7.05479 -6.60017
2 9.2769 -2.56428 -0.0434883
1 5.45595 -4.68779 6.78021
3 1.41659 -7.07121 -6.5652
2 1.31029 3.95014 8.89298
2 -2.82285 -3.11577 8.857
3 -3.97664 -0.916632 8.9821
3 3.89459 0.914153 -8.71315
2 -4.07276 0.775745 -8.88544
3 -2.68735 3.03693 -8.83029
3 8.18387 3.06911 -2.18323
1 1.37422 8.53255 2.2979
2 -6.74026 5.46872 -2.17442
2 -8.07307 -3.13203 2.17445
2 -1.46257 -8.68229 -2.26424
1 6.60862 -5.37401 2.33986
1 1.27481 -0.720415 8.88904
1 0.178538 -1.65226 -8.79554
2 6.82817 3.93787 -4.32734
3 0.0680851 7.66177 4.36042
3 -6.80127 3.86541 -4.44955
2 -6.61068 -4.12832 4.40542
2 0.00964839 -7.88548 -4.37046
2 6.6676 -3.90915 4.59874
1 -1.36181 -0.782758 8.84278
3 -1.43444 0.791028 -8.72209
3 8.12108 1.53146 2.09006
2 2.6316 7.7586 -2.45746
3 -5.28049 6.11851 2.069
2 -8.09911 -1.67027 -2.10156
1 -2.65476 -7.79025 2.32033
3 5.35207 -6.22703 -2.21616
1 6.80322 0.878013 4.37183
1 2.91918 6.1863 -4.458
1 -4.0423 5.48764 4.39497
2 -6.78012 -0.819951 -4.27319
3 -2.66336 -6.28577 4.47349
3 4.04554 -5.49916 -4.42516
2 5.32777 0.0991663 6.67873
3 2.79454 4.66259 -6.59314
1 -2.69508 4.73997 6.649
1 -5.43096 0.149117 -6.3929
2 -2.7588 -4.63441 6.65676
1 2.79323 -4.75499 -6.7647
2 6.8886 5.58315 -2.00931
1 -1.27253 8.61243 2.18414
3 -8.24637 3.24323 -2.18577
2 -6.65987 -5.5052 2.14141
1 1.27156 -8.70685 -2.12014
1 8.10959 -3.11403 2.34845
3 -0.025476 1.6332 8.86262
2 1.21976 0.753198 -9.02491
1 6.70625 3.7676 2.24111
3 0.0149077 7.97472 -2.33513
3 -6.67711 4.02236 2.19251
3 -6.76461 -4.02751 -2.20785
3 -0.0408564 -7.73417 2.30879
3 6.70956 -3.96069 -2.19811
2 5.30733 3.27867 4.64552
3 0.196995 6.36562 -4.47982
1 -5.39104 3.10463 4.47028
1 -5.33022 -3.16643 -4.37532
2 -0.0937329 -6.28485 4.37261
2 5.31701 -3.22791 -4.40986
3 4.09303 2.34961 6.51031
1 0.102987 4.69508 -6.59884
1 -3.88693 2.34352 6.62588
1 -3.89708 -2.15773 -6.46375
2 -0.162216 -4.68243 6.66079
2 4.14122 -2.22786 -6.60049
2 5.38791 6.22695 2.25379
2 -2.65435 7.81479 -2.15817
2 -8.17618 1.62 2.24931
3 -5.46919 -6.24861 -2.29633
1 2.80418 -8.01265 2.2313
1 7.99216 -1.68337 -2.19909
2 3.90471 5.55617 4.40891
2 -2.57078 6.13368 -4.28862
3 -6.90276 0.743596 4.47661
2 -4.08464 -5.40392 -4.4123
1 2.7004 -6.34986 4.36066
2 6.63227 -0.695592 -4.41401
3 2.61147 4.79197 6.74498
2 -2.74984 4.72222 -6.55202
1 -5.36736 -0.109487 6.70122
3 -2.69553 -4.66825 -6.59094
1 2.54024 -4.78362 6.73014
1 5.30364 -0.104086 -6.64955
2 13.4449 0.0259853 -0.0440533
3 6.74012 11.7872 -0.0191693
2 -6.59582 11.7615 -0.000428411
2 -13.5512 0.00145746 0.0465054
2 -6.74218 -11.7199 0.0866237
3 6.75735 -11.7257 0.127692
2 6.43165 -3.92269 10.9899
1 -0.0313107 7.93605 10.9882
2 -6.84679 -3.93758 11.0281
1 0.0407722 -7.71702 -10.8787
2 6.86889 3.80607 -10.9892
2 -6.8376 4.00834 -11.0615
3 12.0377 2.24087 -0.136838
2 12.2513 -0.747125 2.1489
2 12.0983 0.80267 -2.32423
2 3.99762 11.813 0.0884463
2 5.40811 10.9972 2.16111
1 6.86657 10.2351 -2.20309
1 -7.8464 9.50792 -0.0594442
1 -5.36542 11.0383 2.19715
3 -6.50603 10.1708 -2.11723
2 -11.9713 -2.42638 0.0719913
2 -12.198 -0.777167 2.35597
1 -12.1803 0.735331 -2.13891
2 -3.98304 -11.6713 0.0700547
1 -6.75681 -10.2585 2.26435
2 -5.46703 -10.9003 -2.15162
1 8.11505 -9.43593 0.0643958
2 6.84417 -10.1982 2.33008
2 5.44113 -11.0041 -2.07862
2 5.2533 -1.55423 11.1082
2 3.74409 -4.0246 10.9358
1 -1.47057 5.49439 11.175
1 1.5718 -5.34238 -10.9543
2 -1.15418 -5.54825 -10.9738
2 4.17905 4.08285 -11.0159
1 10.6824 4.63828 0.0967851
3 10.6313 -1.54911 4.48431
3 10.7527 1.58787 -4.35965
1 1.48072 11.8861 0.0140806
1 3.94889 10.0844 4.47181
1 6.8726 8.68406 -4.376
2 -9.40199 7.01253 0.16339
1 -4.13216 10.1926 4.52399
2 -6.48235 8.48853 -4.26775
1 -10.816 -4.66022 0.0502128
3 -10.8465 -1.54732 4.47479
3 -10.8235 1.51839 -4.39556
3 -1.29435 -11.7888 -0.0116681
2 -6.78749 -8.7291 4.44459
2 -3.96267 -10.1067 -4.31808
1 9.53304 -7.04132 0.120059
1 6.78407 -8.68289 4.54598
2 4.06067 -10.0302 -4.43017
3 4.0304 0.773278 10.9564
3 1.15837 -4.02611 10.9852
2 -2.83067 3.06383 10.959
2 2.74469 -3.14299 -11.1856
2 -2.74544 -3.06893 -10.9532
2 1.42731 3.84488 -11.0968
1 9.34731 6.95953 0.13326
2 9.29882 -2.42491 6.6326
2 9.39488 2.23293 -6.42758
2 -1.29122 11.8998 -0.0340214
3 2.69359 9.45805 6.69615
2 6.82537 7.24661 -6.63757
1 -10.7805 4.66634 0.0277909
1 -2.52531 9.508 6.60147
2 -6.66351 7.03361 -6.67446
1 -9.4435 -7.11817 0.0189274
1 -9.47176 -2.37231 6.68565
1 -9.38711 2.36429 -6.49953
3 1.25076 -11.7272 -0.0687884
1 -6.7535 -7.12703 6.5668
2 -2.58594 -9.26146 -6.57256
1 10.7622 -4.6588 0.00301391
2 6.82495 -6.97606 6.70446
2 2.7209 -9.48919 -6.67372
2 2.69368 3.00731 11.0461
1 -1.40793 -3.95896 11.0777
2 -4.11618 0.750444 11.1447
1 4.08614 -0.716601 -11.0311
2 -3.89203 -0.706347 -10.9853
2 -1.29883 3.68468 -11.131
1 8.14839 9.35491 0.042234
2 8.03231 -3.22262 8.77735
3 8.10045 2.96327 -8.8177
2 -3.87706 11.7177 -0.0711988
1 1.32905 8.46714 8.85011
2 6.75618 5.71312 -8.9024
2 -12.2142 2.32719 0.0775192
2 -1.4192 8.76056 8.76989
3 -6.78385 5.4189 -8.83999
3 -8.04353 -9.44427 0.0979787
1 -7.9465 -3.10396 8.83432
2 -8.183 3.10229 -8.69074
3 4.10926 -11.7676 0.0267179
2 -6.75053 -5.57092 8.83635
3 -1.36903 -8.58148 -8.7169
1 12.3862 -2.35617 0.00608461
2 6.60181 -5.4919 8.90066
1 1.44297 -8.552 -8.60359
2 1.5027 5.35521 11.082
2 -4.0927 -4.08124 11.1685
2 -5.28273 -1.7173 11.1259
1 5.29018 1.64951 -11.0275
2 -5.37453 1.75417 -11.0907
1 -4.09336 3.90778 -11.0432
1 10.7174 3.1283 -2.21534
3 2.87371 10.9028 2.44763
1 -8.07076 7.87403 -2.08599
2 -10.6339 -3.13843 2.18926
1 -2.82536 -11.0537 -2.06811
2 8.14622 -7.87114 2.17224
3 2.65745 -1.62688 10.9501
2 -0.0234553 -3.20437 -10.9874
1 9.38421 3.85181 -4.29664
2 1.28822 10.0616 4.56552
1 -8.22128 6.23504 -4.3454
2 -9.38314 -3.94541 4.52898
2 -1.31057 -10.237 -4.5738
2 8.07533 -6.26526 4.36727
3 -0.00146579 -1.64267 11.0658
1 -1.40175 -0.846827 -10.9648
2 8.04778 4.68497 -6.68141
2 0.0592154 9.34547 6.68956
2 -8.09898 4.69557 -6.56641
1 -7.9638 -4.58236 6.64711
3 0.14809 -9.40902 -6.60948
3 8.13374 -4.74839 6.59658
2 -2.59791 -1.50754 11.0701
2 -2.67447 1.45319 -10.9606
3 10.636 1.65268 2.15532
3 4.2203 10.3332 -2.26644
2 -6.6956 8.65223 2.26664
2 -10.7518 -1.54126 -2.16957
2 -4.08681 -10.2162 2.258
1 6.73044 -8.573 -2.18541
2 9.38277 0.74137 4.2702
1 4.07696 8.60231 -4.49921
3 -5.35673 7.89967 4.43938
2 -9.44062 -0.807267 -4.28895
1 -3.97918 -8.6637 4.42513
1 5.36003 -7.76246 -4.33865
3 7.93711 0.0739556 6.63774
2 4.23999 7.28341 -6.61159
1 -4.06563 7.25999 6.58476
2 -7.98599 0.0968597 -6.75382
1 -3.94269 -7.11762 6.76076
1 4.08568 -7.20797 -6.57518
1 6.68335 -0.851657 8.75754
2 4.06104 5.68922 -8.86124
1 -2.74674 6.30553 8.88428
1 -6.68251 0.813453 -8.80045
2 -4.04636 -5.65474 8.89666
2 2.8171 -6.41602 -8.75192
3 9.53493 5.54122 -2.26273
2 0.172396 10.8923 2.14099
2 -9.47759 5.53811 -2.1859
2 -9.50618 -5.58087 2.2351
2 -0.0138245 -10.9445 -2.23099
1 9.51498 -5.55791 2.30517
3 1.17925 0.722177 11.0349
2 1.40839 -0.935829 -11.0848
2 8.24673 6.23471 -4.44201
2 -1.32114 10.2244 4.2636
3 -9.52841 4.00487 -4.25807
3 -8.1104 -6.28459 4.40317
3 1.35305 -10.1239 -4.41735
2 9.44495 -3.83276 4.45394
2 -1.28284 0.909553 11.0747
2 -0.00851342 1.50131 -11.1912
2 9.25826 3.78048 2.36586
2 1.49994 10.2871 -2.23193
2 -7.95483 6.15195 2.30109
2 -9.42581 -3.96951 -2.17175
3 -1.42657 -10.1539 2.18533
2 8.10413 -6.20977 -2.13558
2 7.92957 3.19549 4.53715
1 1.40409 8.63424 -4.40339
3 -6.76601 5.53336 4.38751
2 -8.08538 -3.18486 -4.40181
3 -1.32615 -8.63912 4.34958
2 6.82614 -5.51927 -4.40056
2 6.68778 2.33528 6.64462
2 1.47159 6.91291 -6.5703
2 -5.5333 4.68439 6.63665
2 -6.77173 -2.34971 -6.52994
1 -1.31716 -7.20756 6.50682
2 5.41817 -4.6911 -6.61712
3 5.42596 1.55037 8.82733
2 1.48542 5.56465 -8.98318
3 -4.04351 3.98282 8.76094
3 -5.34733 -1.51926 -8.68302
2 -1.32515 -5.39523 8.88523
1 4.06977 -4.02741 -8.92048
2 8.18864 7.91951 -2.19355
3 -2.61917 11.0684 2.13427
1 -10.8631 3.08774 -2.25612
3 -8.05366 -7.85597 2.15098
2 2.68293 -11.0583 -2.1722
2 10.9873 -3.06667 2.26869
3 -0.088719 3.12442 10.9258
2 2.68014 1.61435 -11.0599
2 8.07808 6.32086 2.35234
2 -1.12437 10.2067 -2.14768
3 -9.45875 3.91411 2.23259
3 -8.07789 -6.26155 -2.27001
2 1.3433 -10.0834 2.23272
2 9.21402 -3.88813 -2.21605
2 6.72373 5.61306 4.60202
2 -1.29037 8.50553 -4.50292
2 -7.99797 3.22014 4.19637
2 -6.71845 -5.64664 -4.36233
2 1.37459 -8.64823 4.35521
1 8.01943 -3.21708 -4.45619
1 5.33493 4.78641 6.76466
2 -1.19423 7.05389 -6.61781
2 -6.88009 2.1364 6.68337
1 -5.3628 -4.76573 -6.57462
1 1.30644 -7.16971 6.48634
2 6.8158 -2.30507 -6.59623
2 4.04805 3.84741 8.7632
2 -1.32492 5.41366 -8.65453
2 -5.52507 1.65088 9.04825
2 -4.10446 -3.87117 -8.68598
1 1.28305 -5.5413 8.84148
2 5.45565 -1.69695 -8.87663
2 6.8816 8.70351 2.2504
1 -3.91465 10.0954 -2.17662
1 -10.9068 1.5641 2.26733
1 -6.82816 -8.59423 -2.24008
3 4.10403 -10.2279 2.35343
1 10.7942 -1.72141 -2.3619
2 5.4996 7.97521 4.5318
3 -3.91103 8.46703 -4.35702
2 -9.40067 0.831278 4.40049
2 -5.26723 -7.83012 -4.51244
3 4.15847 -8.63674 4.38016
1 9.46927 -0.744679 -4.50978
2 3.9726 7.09018 6.6504
2 -3.96656 7.0553 -6.54795
1 -8.05436 -0.016412 6.83288
2 -3.9183 -7.06285 -6.73073
3 4.03317 -6.9874 6.6638
3 8.05599 -0.0781446 -6.63145
2 2.72365 6.21711 8.77881
1 -3.99071 5.4385 -8.79434
2 -6.69696 -0.76608 8.89895
1 -2.69163 -6.15684 -8.8284
3 4.00307 -5.40525 8.9439
1 6.65607 0.588197 -8.88443
2 16.3272 -0.11975 0.120911
2 8.13598 14.3031 -0.0363958
2 -8.20486 14.3 -0.0599709
2 -16.3968 -0.0272296 0.00539389
2 -8.09427 -14.1515 -0.0161533
3 8.04717 -14.1673 -0.018719
1 7.91871 -4.59874 13.287
2 -0.0335838 9.39319 13.0959
2 -8.12654 -4.44941 13.4941
1 0.18809 -9.35632 -13.1253
3 8.13767 4.65538 -13.2549
3 -8.10167 4.65995 -13.2639
1 14.8525 2.18938 -0.0558339
1 14.8826 -0.85105 2.14704
2 14.9197 0.636754 -2.14247
3 5.55034 14.0475 0.0609921
2 6.96343 13.2084 2.19808
2 8.11908 12.6911 -2.10631
1 -9.31989 11.9264 -0.0222396
1 -6.75683 13.471 2.06816
2 -7.86561 12.5909 -2.07069
3 -14.8645 -2.23358 0.225302
2 -15.0639 -0.741376 2.22382
2 -14.7695 0.777127 -2.06078
1 -5.35788 -14.1497 0.0515488
1 -8.02665 -12.57 2.10406
3 -6.63514 -13.1742 -2.05036
3 9.42976 -11.7917 0.135478
2 8.09528 -12.7866 2.15434
3 6.62453 -13.2665 -2.23138
2 6.6249 -2.32912 13.3626
1 5.26804 -4.77206 13.2021
2 -1.33271 7.00109 13.2242
3 1.49204 -7.00361 -13.1475
3 -1.22946 -6.88668 -13.2269
2 5.36337 4.60806 -13.2005
2 13.4431 4.60734 0.0566945
1 13.3652 -1.51297 4.41657
2 13.4992 1.39259 -4.34991
3 2.8685 14.1013 -0.0226329
2 5.54981 12.4518 4.39158
1 8.16218 11.1096 -4.40501
2 -10.7227 9.505 -0.141708
1 -5.48902 12.57 4.38976
1 -7.85575 10.8752 -4.33345
2 -13.4098 -4.65898 -0.0286235
1 -13.625 -1.56972 4.56182
3 -13.4768 1.46525 -4.36211
2 -2.71313 -14.0856 0.0322666
3 -8.20381 -11.0696 4.32647
2 -5.50216 -12.4066 -4.39393
3 10.6392 -9.4086 -0.0112063
2 8.0709 -11.1897 4.44718
3 5.43278 -12.46 -4.28816
3 5.29599 -0.00234775 13.2026
3 2.73918 -4.72287 13.1537
1 -2.90025 4.76527 13.1876
2 2.68268 -4.7919 -13.3479
2 -2.64625 -4.57226 -13.0456
3 2.61644 4.75192 -13.0314
2 12.0527 6.96194 -0.132636
3 11.9675 -2.33296 6.55592
2 12.0863 2.27106 -6.63649
2 0.263739 14.1975 0.0539856
1 4.04541 11.8332 6.56657
2 8.11733 9.55271 -6.644
2 -12.1359 6.97978 0.142399
1 -4.16797 11.7085 6.71891
2 -7.935 9.32812 -6.56579
2 -12.1639 -7.09832 0.0609878
2 -12.0652 -2.31544 6.62912
1 -12.1079 2.17917 -6.50785
2 0.0709549 -14.0239 0.0840237
2 -8.07414 -9.6112 6.71562
1 -4.07598 -11.5973 -6.57948
3 12.0451 -6.83915 0.0898672
2 8.34802 -9.40829 6.66458
3 4.05285 -11.7259 -6.55152
1 4.02169 2.31873 13.0982
3 -0.0846075 -4.68948 13.1218
2 -4.1121 2.51613 13.2208
1 4.23374 -2.37469 -13.3671
1 -4.02484 -2.30012 -13.1717
2 -0.0475085 4.63069 -13.1547
1 10.8117 9.2813 0.077742
2 10.6796 -3.08302 8.85139
2 10.6249 2.87152 -8.76992
2 -2.69626 14.1089 0.0317119
2 2.5967 11.0269 8.85693
3 8.15085 7.91519 -8.98579
2 -13.6342 4.78518 0.0579734
3 -2.75727 10.9594 8.9359
1 -8.02877 7.75135 -8.79608
2 -10.7459 -9.57805 0.0255453
2 -10.8512 -3.04302 8.97038
3 -10.792 3.00341 -8.74679
2 2.74891 -14.0584 -0.0843866
1 -8.17203 -7.77148 8.83634
3 -2.69301 -10.7043 -8.68256
2 13.6165 -4.64764 -0.0317323
1 8.11023 -7.69795 8.82686
3 2.69624 -11.0603 -8.75141
3 2.70641 4.62417 13.182
1 -2.7106 -4.80033 13.2388
2 -5.36721 -0.00810809 13.3381
1 5.42356 -0.0318229 -13.1613
2 -5.40505 0.0413342 -13.1088
3 -2.68503 4.76225 -13.2149
2 9.44412 11.6663 0.0210233
2 9.13066 -3.91059 11.071
3 9.57785 3.87632 -10.993
2 -5.35721 14.1284 -0.0640292
2 1.17646 10.2508 10.8925
2 8.1017 6.18465 -11.2178
2 -14.9745 2.3663 0.0874158
3 -1.48913 10.2439 10.885
2 -8.12004 6.29603 -11.0388
3 -9.53256 -11.7605 0.0590583
2 -9.51296 -3.89916 11.3135
1 -9.51862 4.09336 -11.155
1 5.39545 -14.1006 -0.137295
2 -8.12997 -6.33039 11.1361
1 -1.32071 -10.0006 -10.8326
2 14.9029 -2.50701 0.0289373
3 8.00809 -6.19979 10.9243
2 1.44884 -10.2249 -10.852
2 1.25917 6.96057 13.2402
2 -5.51571 -4.71448 13.3436
2 -6.63179 -2.26753 13.3258
1 6.75773 2.44833 -13.2156
1 -6.82117 2.32177 -13.3558
2 -5.39913 4.55759 -13.3715
1 13.4486 3.08046 -2.31184
2 4.20604 13.3675 2.2593
2 -9.22504 10.2428 -2.19694
2 -13.6379 -3.2055 2.27734
2 -3.97676 -13.2761 -2.05213
2 9.42395 -10.2261 2.2148
3 3.98771 -2.4952 13.2646
2 0.0874005 -4.58066 -13.1971
2 12.1214 3.85094 -4.39852
2 2.84348 12.5581 4.41527
2 -9.29084 8.62428 -4.49261
2 -12.0825 -3.9723 4.47864
2 -2.62389 -12.4797 -4.40616
2 9.48517 -8.65079 4.34346
3 1.2123 -2.37653 13.1229
3 -1.23795 -2.42964 -13.237
1 10.6014 4.63741 -6.65796
2 1.37922 11.8663 6.72193
2 -9.50722 7.01729 -6.69349
1 -10.8256 -4.65606 6.596
1 -1.33608 -11.6373 -6.62504
2 9.54821 -6.98572 6.68007
3 -1.2721 -2.4096 13.2359
2 -2.67765 0.000296627 -13.2224
1 9.38933 5.38958 -8.90745
3 -0.0697997 11.0243 8.71324
2 -9.57143 5.44881 -8.99082
2 -9.46952 -5.4164 8.9197
2 0.120988 -10.9161 -8.65382
2 9.40387 -5.43175 8.7102
2 -3.92687 -2.34078 13.2882
1 -4.05704 2.35817 -13.2676
3 13.4601 1.55152 2.0623
1 5.39623 12.5998 -2.15874
1 -8.05629 10.9718 2.0822
1 -13.3872 -1.6606 -2.09627
2 -5.49337 -12.4945 2.45056
1 8.06043 -11.0413 -2.06436
1 11.9591 0.929083 4.20992
3 5.50966 11.0364 -4.26244
1 -6.82848 10.1494 4.52515
2 -12.0811 -0.776783 -4.44331
1 -5.46687 -11.0516 4.59492
2 6.7263 -10.0863 -4.41186
2 10.5867 -0.0221927 6.46958
2 5.40407 9.60526 -6.44144
2 -5.53681 9.59593 6.72481
2 -10.7548 0.167597 -6.69847
3 -5.3578 -9.36755 6.56346
1 5.42084 -9.48463 -6.63705
2 9.46991 -0.686422 8.86177
1 5.48729 8.03834 -8.76901
3 -4.10935 8.67249 8.73234
3 -9.38701 0.782156 -8.85621
2 -5.50703 -7.97309 8.81651
3 4.20201 -8.75607 -8.88172
2 7.96626 -1.61858 11.1218
2 5.47546 6.46659 -11.0424
2 -2.95123 7.85207 10.9975
2 -7.94713 1.53112 -10.9574
3 -5.51337 -6.30761 11.0019
1 2.80341 -7.77601 -11.0192
2 12.1355 5.40663 -2.27037
2 1.5108 13.2637 2.09387
2 -10.78 7.85503 -2.30765
2 -12.31 -5.59485 2.39496
2 -1.26685 -13.214 -2.18911
1 10.8829 -7.90958 2.20428
2 2.66922 -0.134533 13.0648
3 1.4471 -2.33567 -13.2572
1 10.8352 6.20519 -4.44083
2 0.2045 12.5054 4.43619
1 -10.8363 6.28693 -4.411
1 -10.7377 -6.31032 4.4032
3 0.0690376 -12.2844 -4.39988
2 10.9156 -6.27499 4.40487
2 -0.0107868 -0.0666089 13.1508
1 -0.0975403 -0.0354329 -13.2996
1 9.56653 7.14999 -6.71027
2 -1.31484 11.7969 6.62304
2 -10.7847 4.56896 -6.69611
1 -9.48532 -6.96675 6.68425
2 1.40296 -11.6902 -6.44304
2 10.8926 -4.67502 6.52407
2 -2.67764 0.111649 13.2747
2 -1.43976 2.37895 -13.3571
2 12.214 3.71664 2.27837
3 2.84037 12.6387 -2.21478
2 -9.4648 8.52081 2.43525
3 -12.2561 -3.99812 -2.17399
3 -2.81446 -12.4492 2.21409
2 9.34568 -8.5714 -2.17414
2 10.6416 3.19911 4.47237
1 2.87567 11.0466 -4.27871
3 -8.10218 7.80224 4.54771
3 -10.7048 -3.30425 -4.41365
2 -2.70782 -10.9052 4.49395
3 8.08561 -7.81501 -4.29172
3 9.32691 2.27425 6.45438
2 2.86067 9.60125 -6.70373
1 -6.73644 7.12358 6.61652
2 -9.53748 -2.35985 -6.49685
3 -2.70456 -9.43061 6.73662
1 6.93543 -6.96554 -6.56912
2 7.97023 1.55984 8.77491
3 2.68441 8.03341 -8.7046
1 -5.4477 6.28328 8.86562
1 -8.11662 -1.47118 -8.67482
1 -2.72369 -7.93592 8.89162
1 5.30677 -6.34881 -8.98487
2 6.66409 0.688786 11.0864
2 2.82322 6.44713 -11.0266
3 -4.25712 5.38092 10.9315
3 -6.62591 -0.789895 -10.8988
2 -2.69325 -6.28427 10.921
2 4.1224 -5.56334 -11.1404
1 10.7104 7.72682 -2.24614
2 -1.2604 13.4812 2.28687
2 -12.2524 5.42798 -2.20047
2 -10.6976 -7.87115 2.38711
2 1.37887 -13.3738 -2.20567
2 12.2792 -5.41214 2.15684
2 1.35932 2.2762 12.954
2 2.56099 0.0290779 -13.3079
2 9.44071 8.6746 -4.48603
2 -2.62206 12.6037 4.3975
3 -12.1145 3.97092 -4.44891
3 -9.36779 -8.70602 4.5297
2 2.77736 -12.438 -4.32595
2 12.2146 -3.78182 4.44041
3 -1.4358 2.40043 13.1517
3 1.17777 2.35388 -13.2161
2 10.8335 6.20521 2.2667
3 0.0240484 12.5763 -2.11661
3 -10.853 6.25782 2.33664
2 -10.744 -6.31569 -2.21245
2 -0.0430747 -12.291 2.12252
2 10.8042 -6.30093 -2.18148
1 9.39721 5.51666 4.5789
2 0.125965 10.9732 -4.36487
3 -9.46231 5.4868 4.37861
2 -9.46985 -5.51257 -4.49591
2 -0.121048 -10.9666 4.44156
3 9.43267 -5.38976 -4.36204
2 8.05462 4.6445 6.73567
2 0.101138 9.48672 -6.71935
1 -8.1158 4.8014 6.54979
2 -8.07545 -4.83939 -6.59639
2 -0.108406 -9.47054 6.50845
2 8.32056 -4.61494 -6.63597
2 6.73287 4.04276 8.87519
2 0.10196 7.75527 -8.86391
1 -6.74716 3.95063 8.74357
2 -6.78837 -3.77448 -8.82305
2 0.0539199 -7.76851 8.7374
3 6.71113 -4.02936 -8.8072
2 5.45653 3.18062 11.0407
2 -0.00679022 6.24691 -11.0573
2 -5.54342 3.14551 11.0662
2 -5.34256 -3.05324 -10.906
3 -0.0992972 -6.31209 10.9327
2 5.46214 -3.08158 -11.0115
2 9.62902 10.1762 -2.19723
1 -4.03855 13.4358 2.09489
2 -13.3874 3.14557 -2.33564
2 -9.37686 -10.152 2.30701
3 4.00386 -13.2612 -2.28925
3 13.6815 -3.25111 2.12319
2 0.0897337 4.58513 13.1148
1 3.96218 2.31419 -13.2396
3 9.60224 8.51229 2.37185
3 -2.57932 12.475 -2.09641
3 -12.2491 3.91795 2.29341
3 -9.42601 -8.56853 -2.2387
3 2.61434 -12.3393 2.02222
1 12.1473 -3.91054 -2.25875
3 8.08907 7.93111 4.48888
1 -2.58928 10.8167 -4.35281
2 -10.7568 3.05941 4.32823
3 -8.14053 -7.87564 -4.40415
2 2.79767 -10.9162 4.3497
1 10.8169 -3.13526 -4.58268
2 6.87882 7.28249 6.7478
2 -2.64674 9.32018 -6.64202
1 -9.54148 2.36698 6.57805
3 -6.58359 -7.07898 -6.56694
3 2.88302 -9.49167 6.4936
1 9.45883 -2.39465 -6.66842
2 5.44607 6.24911 9.01752
3 -2.54734 7.82185 -8.83552
1 -8.05408 1.6571 8.94886
3 -5.43821 -6.05703 -8.80775
2 2.62454 -7.82162 8.66259
3 8.03707 -1.76003 -8.95324
3 4.04281 5.45898 11.0316
2 -2.63224 6.1062 -10.884
2 -6.86681 0.79033 11.1578
1 -4.05619 -5.41534 -10.9533
2 2.56807 -6.43178 10.9304
2 6.79583 -0.803865 -11.0927
2 8.1247 10.956 2.19377
1 -5.28625 12.4625 -2.24178
3 -13.6961 1.47503 2.35363
3 -8.0207 -11.0121 -2.21065
2 5.28653 -12.505 2.25592
2 13.5985 -1.62616 -2.30846
3 6.87579 10.2163 4.34276
3 -5.22893 10.8482 -4.40115
1 -12.2106 0.739817 4.41877
2 -6.80525 -10.1 -4.42139
3 5.52517 -10.9682 4.46817
1 12.2624 -0.899877 -4.47012
1 5.36658 9.35577 6.65677
2 -5.23731 9.37752 -6.51381
2 -10.867 -0.00674121 6.7111
2 -5.3541 -9.39633 -6.62758
2 5.44413 -9.18458 6.56293
1 10.8689 -0.113651 -6.62065
2 3.97623 8.60205 8.82712
2 -5.22097 7.84869 -8.80348
2 -9.45101 -1.02559 8.81578
1 -3.99672 -8.418 -8.81826
3 5.2674 -7.77407 8.77775
2 9.33971 0.489026 -8.77161
2 2.63364 7.71196 10.9292
2 -5.33618 6.24854 -11.0808
2 -8.20906 -1.45993 11.2069
3 -2.63045 -7.64649 -10.9422
2 5.42959 -6.33418 10.9716
2 8.03038 1.53626 -10.9623
3 18.9529 0.0641285 -0.068929
3 9.47535 16.424 0.144663
3 -9.43699 16.4538 -0.0681174
3 -18.921 -0.00596328 0.0344668
1 -9.47354 -16.285 0.048934
2 9.12171 -16.5972 -0.104182
1 9.35243 -5.5507 15.4986
2 -0.0502929 11.0588 15.2361
2 -9.51667 -5.60317 15.4462
3 0.114736 -10.9573 -15.3235
3 9.47333 5.38155 -15.2194
3 -9.33942 5.51404 -15.668
3 17.5505 2.25461 -0.0290235
1 17.5591 -0.790028 2.16464
2 17.6401 0.748346 -2.21368
2 6.71095 16.4889 0.0269914
2 8.17325 15.7906 2.30005
1 9.53431 14.9898 -2.31815
3 -10.8226 14.1112 -0.109455
2 -8.16801 15.7302 2.26316
3 -9.289 14.8289 -2.31576
1 -17.6699 -2.4274 0.132936
3 -17.79 -0.792213 2.34489
2 -17.5626 0.87626 -2.32988
2 -6.71999 -16.4046 0.0567311
3 -9.50455 -14.8625 2.27496
2 -7.96973 -15.6899 -2.12243
1 10.8415 -13.9544 -0.188907
2 9.52172 -14.8416 1.98586
2 7.94369 -15.5484 -2.25894
2 8.00374 -3.07453 15.5967
1 6.74967 -5.44047 15.4768
1 -1.38599 8.51368 15.2623
3 1.45954 -8.77037 -15.3345
3 -1.23046 -8.70038 -15.3823
2 6.79154 5.47379 -15.4462
2 16.1867 4.61898 -0.0147947
1 16.2192 -1.5398 4.36501
2 16.1009 1.41592 -4.46884
1 4.13553 16.395 -0.0824078
3 6.74433 14.8503 4.27065
1 9.48778 13.3923 -4.52184
2 -11.9233 11.7196 -0.0357102
2 -6.80977 14.8692 4.51275
3 -9.35499 13.3159 -4.35267
2 -16.1968 -4.69283 0.077993
2 -16.4993 -1.67959 4.36841
3 -15.9857 1.60706 -4.20771
2 -4.13307 -16.5096 0.0188272
2 -9.56171 -13.3233 4.41617
2 -6.72479 -14.7397 -4.18813
3 12.1027 -11.6556 0.081595
1 9.56947 -13.3301 4.45289
1 6.78692 -14.8411 -4.42439
1 6.70589 -0.883664 15.521
2 3.92498 -5.45687 15.2801
1 -2.63783 6.21623 15.587
2 2.74942 -6.35434 -15.4364
2 -2.47718 -6.32235 -15.3647
1 4.07354 5.50506 -15.3944
3 14.776 7.09032 -0.0559183
1 14.8422 -2.40478 6.56081
3 14.8027 2.29133 -6.67762
1 1.33086 16.5381 -0.0939612
2 5.21527 14.1582 6.542
3 9.49575 11.7992 -6.81978
2 -13.4779 9.36923 0.0323589
1 -5.36555 14.0076 6.66474
1 -9.21979 11.5972 -6.48637
3 -14.8924 -6.90123 -0.00468995
2 -14.7536 -2.41441 6.71692
2 -14.7507 2.20492 -6.51568
2 -1.19554 -16.465 -0.0596852
1 -9.44483 -11.7243 6.72066
2 -5.35881 -14.166 -6.62519
2 13.4263 -9.21719 0.209562
3 9.44569 -11.7018 6.55347
2 5.32873 -14.0692 -6.41593
1 5.53017 1.5889 15.3054
3 1.19085 -5.6423 15.2839
1 -4.30302 3.80184 15.5979
1 4.1787 -4.06511 -15.5624
2 -3.84841 -3.94066 -15.3118
3 1.3477 5.44681 -15.4557
2 13.6221 9.53369 -0.00329204
1 13.4886 -3.19279 8.83721
2 13.53 3.00389 -8.80567
2 -1.32049 16.5754 0.0616125
3 3.91837 13.3792 8.89144
2 9.40168 10.0891 -8.86187
1 -14.7949 7.08244 -0.126528
3 -4.10014 13.2481 8.93802
2 -9.28768 9.91204 -8.72029
3 -13.4673 -9.338 0.136363
1 -13.4667 -3.23313 8.94577
1 -13.4895 3.03537 -8.69344
3 1.4544 -16.4001 -0.0817429
2 -9.38474 -10.2219 8.99592
2 -3.9795 -13.1359 -8.71874
3 14.767 -7.02653 0.0741541
1 9.50392 -10.1134 8.85998
2 4.12966 -13.2664 -8.7109
3 3.98065 3.97981 15.299
1 -1.36566 -5.4857 15.3479
2 -5.50507 1.38823 15.4587
1 5.55557 -1.56709 -15.5599
2 -5.34444 -1.49012 -15.3611
3 -1.34319 5.36932 -15.4048
1 12.1514 11.7261 -0.0160157
2 11.9734 -3.87352 11.0577
2 12.1506 3.79977 -11.042
3 -3.87599 16.3758 0.0218493
3 2.49323 12.5408 11.0857
3 9.37975 8.60157 -11.1321
1 -16.2788 4.60857 -0.0524052
3 -2.80091 12.4834 11.0401
2 -9.40884 8.53743 -11.0965
3 -11.9904 -11.74 0.00752087
3 -12.0371 -3.88156 11.0777
2 -12.0841 3.91626 -10.8431
3 3.96096 -16.4362 -0.134098
3 -9.44895 -8.58451 10.978
2 -2.51017 -12.2405 -10.9641
3 16.2446 -4.78096 0.111435
3 9.37351 -8.26815 11.0176
2 2.84021 -12.4286 -10.9252
2 2.70468 6.26615 15.281
2 -4.03473 -5.46217 15.6629
2 -6.82779 -0.677965 15.5392
3 6.69406 0.719855 -15.4062
3 -6.63039 0.781588 -15.3765
3 -3.85328 5.40101 -15.3778
1 11.036 14.1673 -0.0109389
3 10.6366 -4.55837 13.2444
3 10.6622 4.75102 -12.9914
1 -6.4434 16.5609 -0.0716925
3 1.38081 11.5949 13.3077
3 9.44952 7.13173 -13.1738
3 -17.6415 2.27525 -0.0840537
2 -1.47765 11.7086 13.0961
1 -9.47869 7.04056 -13.4543
3 -10.6606 -14.0596 0.133106
3 -10.8447 -4.66319 13.2949
1 -10.791 4.72034 -13.5118
3 6.48003 -16.5617 -0.134347
2 -9.50545 -7.01631 13.2807
3 -1.27742 -11.6122 -13.137
1 17.6457 -2.44351 0.0140948
2 9.42126 -6.88872 13.2904
2 1.33895 -11.7037 -13.1862
2 1.32102 8.73822 15.3752
1 -6.79426 -5.48287 15.6035
1 -8.08621 -3.10103 15.7536
2 7.81511 3.07497 -15.533
3 -8.05642 3.1522 -15.5946
3 -6.60688 5.60287 -15.4788
2 16.1782 3.00632 -2.19945
2 5.50472 15.7684 2.16183