2891
 Atoms. Timestep: 6000
2 -0.137065 -0.0881057 -0.342196
3 2.62432 0.0439117 -0.174425
2 1.21386 2.22853 0.022187
2 -1.46507 2.2312 -0.29527
3 -2.81214 0.04521 -0.102195
2 -1.43622 -2.36063 -0.00102935
2 1.4666 -2.30632 0.00504979
1 1.13889 -0.599618 1.88772
3 0.0886419 1.65807 2.2553
2 -1.42543 -0.706398 2.11851
3 1.32481 0.818001 -2.15431
2 -1.56405 0.616922 -2.11222
2 5.39317 0.158041 -0.0910902
1 -2.31417 4.74456 -0.0335699
3 -5.4838 0.128259 -0.0189274
1 -2.72772 -4.81386 -0.0188134
2 2.95747 -4.6935 -0.0341074
1 2.66092 -1.56012 4.18306
3 -0.0250591 3.11303 4.4077
2 -2.62667 -1.392 4.36546
1 -0.123891 -3.10624 -4.22786
1 2.85553 1.45715 -4.15746
2 -2.73492 1.37993 -4.60299
2 3.99007 2.35314 0.0975097
2 4.08228 -0.802678 2.12039
2 3.98579 0.557564 -2.25438
1 2.43235 4.54033 0.101917
2 1.30407 3.93118 2.42074
2 2.71943 3.04142 -2.0672
1 -4.15504 2.22715 0.017938
2 -1.41872 3.94208 2.06772
1 -2.71514 2.93048 -2.23553
2 -4.42781 -2.12069 -0.131704
2 -4.08135 -0.683579 2.1326
3 -4.07685 0.618596 -2.17197
2 0.0393386 -4.4221 -0.0962419
2 -2.71779 -3.05493 2.03443
2 -1.32682 -3.89654 -2.12082
3 4.09684 -2.39654 0.0269391
3 2.75672 -2.8879 2.21421
2 1.41146 -4.00034 -2.27471
1 1.46331 0.839693 4.22667
2 -0.122061 -1.65405 4.16406
1 -1.28684 0.81353 4.5651
1 1.18172 -0.775553 -4.17447
2 -1.39802 -0.720774 -4.25213
1 0.360625 1.63888 -4.47875
2 2.69002 1.53627 1.98075
1 -0.0246545 3.05283 -2.20046
1 -2.69432 1.65659 2.01148
1 -2.86805 -1.70718 -2.14808
3 0.0495618 -3.12896 2.06301
3 2.54839 -1.6137 -2.13742
2 8.02338 0.17432 0.0239158
1 4.30478 7.12505 0.188049
2 -3.87548 6.98721 -0.0745323
1 -4.11921 -6.98905 0.159033
2 3.99271 -7.05935 -0.168883
2 4.0174 -2.18256 6.77785
1 0.1595 4.67636 6.54025
2 -3.7843 -2.50929 6.56846
3 -0.0657389 -4.63086 -6.53563
2 4.33482 2.38303 -6.61028
2 -3.86798 2.19435 -6.67528
2 6.71676 2.4395 0.0401551
3 6.62979 -0.809938 2.30259
1 6.73265 0.891942 -2.1953
2 1.47199 6.97832 -0.21997
3 2.73783 6.12673 2.14829
3 4.10337 5.63913 -1.84662
2 -5.36878 4.94201 0.0580882
1 -2.73741 6.23323 2.24858
2 -4.13179 5.43194 -2.22953
2 -6.94792 -2.19665 -0.100333
1 -6.81086 -0.709395 2.01567
2 -6.86108 0.785715 -2.26011
2 -4.24674 -5.50614 2.38625
2 -2.86956 -6.32657 -2.05276
1 5.49691 -4.75572 -0.114309
2 4.09591 -5.47525 2.08274
3 2.7351 -6.23027 -2.17678
1 2.87281 0.0110291 6.5996
2 1.26112 -2.11204 6.44034
2 -1.07672 2.52521 6.628
1 1.36922 -2.16216 -6.62075
1 -1.56458 -2.29735 -6.62535
1 5.23121 4.53664 0.0684242
1 5.36173 -1.64313 4.38281
3 5.17571 1.37818 -4.305
2 -1.19439 7.07949 -0.109785
1 4.18174 3.88932 -4.28763
1 -6.84755 2.34207 -0.117678
2 -1.06324 5.45081 4.38467
2 -3.92211 3.82661 -4.26319
3 -5.44921 -4.56624 0.188911
3 -5.34319 -1.6423 4.4399
3 -5.52958 1.51651 -4.37146
2 1.23576 -6.99903 -0.221493
3 -4.05008 -3.88022 4.24495
1 -1.37345 -5.38591 -4.52791
1 6.57093 -2.2867 -0.0635729
1 3.95524 -3.92444 4.28831
1 1.29525 -5.49847 -4.44561
2 1.48565 2.39541 6.50213
1 -1.26606 -2.1125 6.57952
2 2.70865 0.185659 -6.68765
2 -2.87812 -0.044739 -6.54477
2 -1.16199 2.47472 -6.5862
2 5.50386 3.09278 -2.11363
2 0.112946 6.16903 2.2084
1 -5.44319 3.04701 -2.08907
3 -5.45299 -2.93553 2.1847
2 -0.144516 -6.31963 -2.31543
2 5.3143 -3.12038 2.08874
1 0.283832 0.0488464 6.57782
2 -0.00453658 -0.0415245 -6.43779
1 5.42128 1.5618 2.20041
1 1.35962 5.4904 -2.14519
2 -4.02469 4.00605 2.55948
2 -1.61532 -5.43516 2.12642
3 3.9157 -3.83068 -2.2348
1 4.09087 0.69371 4.29735
1 1.58255 3.95298 -4.29888
2 -2.56341 2.99728 4.47019
2 -4.12217 -0.833736 -4.23186
2 -1.34282 -3.94813 4.30527
1 2.6578 -3.09876 -4.37935
2 3.99051 3.84639 2.36073
3 -1.27068 5.41385 -2.35381
2 -5.46771 1.69248 2.01624
3 -4.04322 -3.91882 -2.08604
2 1.15642 -5.5251 2.12166
1 5.18822 -1.70251 -2.24844
3 2.79814 2.94554 4.52657
3 -1.15841 3.79059 -4.38051
1 -4.22246 0.890116 4.05256
2 -2.76938 -3.14861 -4.37287
2 1.42199 -4.10112 4.35354
2 10.8979 -0.0988812 -0.111059
1 5.5959 9.31924 0.0264787
3 -5.33632 9.3334 0.00866706
2 -10.8377 0.0741619 -0.212233
2 -5.59013 -9.27736 0.0265679
1 5.2351 -11.0442 -1.55338
2 5.47898 -3.14988 8.89203
2 0.0151501 6.12829 8.81794
2 -5.21798 -3.14855 8.76003
3 0.0594493 -6.04731 -8.86417
1 5.42185 3.14372 -9.14753
2 -5.34764 3.13607 -8.79946
2 9.59761 2.3449 -0.0146509
2 9.46645 -0.846652 2.18792
1 9.44181 0.921184 -2.25555
1 2.84994 9.39633 0.0117734
1 4.0057 8.6584 2.39888
2 5.37289 7.86484 -2.31162
2 -6.72537 6.98424 0.0903958
1 -4.10733 8.43798 2.04558
1 -5.27702 7.73582 -2.24695
3 -9.56047 -2.12034 -0.14014
2 -9.50199 -0.789642 2.08437
3 -2.87243 -9.03995 0.120321
1 -5.67643 -7.78812 2.22532
1 -4.2564 -8.57738 -2.14811
2 5.20935 -7.75878 2.26359
1 3.97041 -8.67136 -2.20695
2 3.70033 -0.583776 8.84815
2 2.76872 -3.20975 8.86863
2 -1.19459 3.69197 8.89074
2 1.40706 -3.9407 -8.68076
2 -1.43884 -4.01966 -8.67348
2 2.76452 3.15206 -8.85372
3 8.16023 4.59316 -0.228372
1 8.10324 -1.56194 4.41544
3 8.10842 1.63748 -4.39197
3 0.135204 9.37519 -0.159328
3 2.75289 7.69593 4.65962
2 5.4382 6.05089 -4.23736
3 -8.05108 4.67875 -0.0667354
1 -5.28864 6.19156 -4.4868
1 -8.12033 -4.58694 0.108789
1 -7.92682 -1.51019 4.45148
2 -8.14089 1.67655 -4.42544
1 -0.0512695 -9.42323 0.0117434
1 -5.59336 -6.11864 4.45962
3 -2.75016 -7.64335 -4.4789
3 7.9889 -4.67039 -0.211746
2 5.22571 -6.30589 4.57228
1 2.68373 -7.7663 -4.3994
1 0.0766122 -3.05507 8.66046
2 -2.50489 1.40679 8.5489
2 2.7929 -1.35178 -8.80213
2 -2.79012 -1.69459 -8.69595
3 0.0433093 3.24496 -8.68231
2 6.89475 6.85075 -0.0152489
3 6.60932 -2.35002 6.71161
1 6.75427 2.20823 -6.53021
2 -2.54918 9.50308 -0.275087
3 1.45652 6.84793 6.69653
1 5.27309 4.65083 -6.64013
2 -9.4232 2.43995 -0.118331
1 -1.10243 7.02517 6.54818
2 -5.41616 4.60349 -6.53219
1 -6.81301 -7.1125 0.099914
2 -6.77038 -2.39552 6.54455
3 -6.73814 2.41404 -6.43846
2 2.48132 -9.44118 -0.128079
3 -5.44636 -4.82099 6.83748
1 -1.35344 -6.9186 -6.58605
2 9.38613 -2.51434 -0.256199
1 5.50731 -4.73247 6.80051
3 1.38471 -6.84465 -6.45765
2 1.46433 3.66642 8.92994
2 -2.41837 -2.93689 8.77456
3 -3.9055 -0.968663 8.94537
3 4.18683 0.867517 -8.88508
2 -4.07045 0.758067 -8.8936
3 -2.65971 3.11997 -8.86931
3 8.12131 3.13304 -2.25544
1 1.27345 8.5884 2.03143
2 -6.8649 5.4009 -2.15145
2 -8.07249 -2.98213 2.31511
2 -1.56611 -8.54407 -2.23662
1 6.78569 -5.55881 1.98331
1 0.0525567 -1.39522 -8.80765
2 6.7179 3.65448 -4.43804
3 0.251807 7.78964 4.2699
3 -6.87645 3.89851 -4.19999
2 -6.63108 -3.71793 4.24243
2 -0.126087 -7.80928 -4.67392
2 6.57381 -3.90716 4.41298
1 -1.14576 -0.741425 8.81031
3 -1.39415 0.882091 -8.70712
3 8.11855 1.56703 2.25302
2 2.71261 7.69943 -2.55653
3 -5.45884 6.25673 2.29407
2 -8.0724 -1.62435 -2.43379
1 -2.77391 -7.82522 2.26775
3 5.22617 -6.28033 -2.36679
1 6.78387 0.784824 4.49275
1 2.83423 6.25437 -4.68771
2 -6.80714 -0.674509 -4.54824
3 -2.91692 -6.22454 4.45315
3 3.87724 -5.39238 -4.45262
2 5.45984 0.0208597 6.75532
3 2.74831 4.35805 -6.534
1 -2.64088 4.81791 6.2647
1 -5.28352 0.0945371 -6.80274
2 -2.61308 -4.81194 6.55436
1 2.67638 -4.50177 -6.70298
2 6.85748 5.53235 -2.28843
1 -1.32765 8.50019 2.22446
3 -8.08478 3.0921 -2.15972
1 1.26304 -8.43696 -2.31226
1 8.13821 -3.11536 2.03261
3 0.301948 1.52123 8.83244
2 1.3169 1.11641 -8.66409
1 6.79348 3.85728 2.18348
3 0.166105 7.77062 -2.22176
3 -6.64375 3.99654 2.13403
3 -6.66048 -3.97571 -1.94278
3 -0.140635 -7.84898 2.16428
3 6.63204 -3.92817 -2.31844
2 5.18799 3.02444 4.74067
3 0.241069 6.12082 -4.27693
1 -5.35552 3.38121 4.50671
1 -5.61282 -2.93729 -3.98121
2 0.0140155 -6.32072 4.24395
2 5.38048 -3.05174 -4.21278
3 4.03486 2.2012 6.72259
1 -4.06884 2.08194 6.41245
1 -4.34264 -2.6624 -6.32108
2 0.333683 -4.62893 6.48104
2 4.07922 -2.29979 -6.57804
2 5.36958 6.14833 2.21979
2 -2.74922 7.64715 -2.31912
2 -8.0053 1.51451 2.22029
3 -5.55546 -6.29052 -2.18002
1 2.59408 -7.8775 2.09863
1 7.9375 -1.53835 -2.40045
2 4.01225 5.32785 4.60433
2 -2.48132 6.17344 -4.47805
2 -4.18066 -5.45733 -4.12972
1 2.6144 -6.35439 4.47296
2 6.76923 -0.747209 -4.49087
3 2.71723 4.68497 6.69985
2 -2.81743 4.63749 -6.69122
3 -2.97704 -4.6313 -6.70552
1 2.75197 -4.57721 6.57294
1 5.3891 -0.0953885 -6.42786
2 13.6047 0.157864 -0.0704944
3 6.85163 11.7445 -0.0221718
2 -6.59168 11.8121 -0.191098
2 -7.0508 -11.6325 0.025233
3 6.80711 -11.7441 0.138267
2 6.78979 -3.96002 11.2309
1 0.159964 7.74028 10.9089
2 -6.82265 -4.18431 11.3358
1 0.158438 -7.63141 -11.052
2 6.90342 3.7847 -11.2435
2 -6.86756 3.81486 -10.7719
3 12.0769 2.23569 -0.150246
2 12.1455 -0.834909 2.15509
2 12.0285 0.874631 -2.37566
2 4.12969 11.7312 -0.00221889
2 5.35099 10.9049 2.1432
1 6.75783 10.0856 -2.23814
1 -7.95699 9.40868 0.161603
1 -5.30097 11.0664 2.40193
3 -6.71713 10.1011 -2.21175
2 -12.2035 -2.38943 -0.177271
2 -12.2448 -0.800321 2.04648
1 -12.1714 0.776544 -2.29879
2 -4.08298 -11.4645 -0.0279649
1 -6.71063 -10.1585 2.27238
2 -5.54557 -10.8683 -2.29711
1 7.93963 -9.25547 -0.00743851
2 6.74367 -10.3008 2.21951
2 5.27863 -1.50206 11.3141
2 4.05951 -3.74632 11.1466
1 -1.1151 5.4913 10.9884
1 1.43114 -5.25687 -10.9332
2 -1.39894 -5.50248 -10.9364
2 4.08334 4.0572 -11.151
1 10.8717 4.68359 0.00994197
3 10.7283 -1.63487 4.66088
3 10.9188 1.63614 -4.60155
1 1.13342 11.9173 -0.00839152
1 3.9836 10.174 4.4926
1 6.65306 8.61676 -4.50063
2 -9.51503 7.0214 0.160808
1 -3.80183 10.0418 4.44954
2 -6.8722 8.95035 -4.47524
1 -10.8948 -4.68823 -0.0866808
3 -10.7759 -1.50581 4.20539
3 -10.7957 1.37891 -4.61316
3 -1.40913 -11.9206 -0.0327815
2 -6.97067 -8.58119 4.37387
2 -3.98162 -9.96568 -4.34558
1 9.46197 -7.24588 -0.0869382
1 6.61063 -8.8128 4.40135
3 3.97648 0.756529 11.0077
3 1.27642 -3.79069 10.9328
2 -2.54375 3.44263 10.9193
2 2.75184 -2.9981 -11.1386
2 -2.96495 -3.34813 -10.9523
2 1.452 4.10884 -11.0064
1 9.45486 7.03508 -0.0842843
2 9.31849 -2.33719 6.64901
2 9.22958 2.32904 -6.6182
2 -1.21394 12.0246 0.212177
3 2.66 9.23269 6.69449
2 6.70521 7.15973 -6.73737
1 -10.6161 4.77777 0.301469
1 -2.57873 9.2742 6.66323
2 -6.77871 7.19028 -6.30277
1 -9.43579 -7.13251 0.0164679
1 -9.33756 -2.09257 6.63529
1 -9.58087 2.25727 -6.6374
3 1.23645 -11.8233 -0.151125
1 -6.82632 -7.05269 6.50458
2 -2.5708 -9.29663 -6.76873
2 6.83229 -6.95771 6.67198
2 2.72234 -9.12646 -6.59635
2 2.8246 3.051 10.9898
1 -1.26394 -3.78656 11.1011
2 -4.06871 0.968194 10.933
1 3.90179 -0.758791 -11.2416
2 -4.08306 -1.01206 -11.0189
2 -1.17856 4.05897 -10.9703
1 8.33019 9.54281 -0.225039
2 8.05294 -3.31849 8.80476
3 8.17578 3.21579 -8.9962
2 -3.99307 11.7667 -0.0185778
1 1.41131 8.38905 8.68714
2 6.83029 5.43719 -8.72546
2 -11.985 2.47011 0.118801
2 -1.43316 8.68466 8.79359
3 -6.78428 5.42849 -8.68219
3 -8.21282 -9.44908 0.16044
1 -8.09696 -3.03583 8.8859
2 -8.21348 2.99232 -8.67314
3 3.56284 -11.8888 0.278582
2 -6.92503 -5.50295 8.85548
3 -1.38604 -8.52002 -8.98245
1 11.9594 -2.44217 -0.15794
2 6.87478 -5.55887 8.82898
1 1.38545 -8.45249 -8.80545
2 1.33546 5.23752 11.1898
2 -3.87746 -3.98095 11.1212
2 -5.23912 -1.81404 11.0753
1 5.35174 1.38905 -11.0348
2 -5.21022 1.42938 -10.9948
1 -4.04435 3.83176 -10.8968
1 10.8445 3.10192 -2.21449
3 2.45242 11.0064 2.22788
1 -8.06785 7.67983 -2.039
2 -10.721 -3.06745 2.10148
1 -2.72673 -10.9793 -2.1262
2 7.96135 -7.95096 2.21982
3 2.78407 -1.46327 10.9699
2 -0.0383253 -3.01832 -10.9648
1 9.57663 3.9339 -4.40203
2 1.35307 10.0043 4.41443
1 -8.23753 6.21499 -4.16712
2 -9.40734 -3.80029 4.37157
2 -1.23068 -9.9454 -4.65003
2 7.93782 -6.44144 4.38257
3 0.0341456 -1.51709 10.8837
1 -1.30979 -0.761772 -11.0228
2 8.12632 4.62209 -6.50237
2 0.00562483 9.31395 6.70363
2 -8.06555 4.52193 -6.55875
1 -8.06884 -4.54105 6.66935
3 0.0714699 -9.3461 -6.64991
3 7.99584 -4.66566 6.38923
2 -2.63668 -1.57262 11.1521
2 -2.6179 1.42245 -10.9499
3 10.7285 1.35105 2.07076
2 -6.78078 8.52982 2.36364
2 -10.8975 -1.56611 -2.48422
2 -3.99033 -9.93267 2.13751
1 6.45634 -8.64376 -2.21011
2 9.3642 0.639792 4.48519
1 4.02783 8.65429 -4.40512
3 -5.22143 7.69958 4.35939
2 -9.37491 -0.759121 -4.64474
1 -4.0923 -8.50378 4.45528
1 5.25324 -8.10655 -4.49758
3 7.98169 -0.153164 6.75919
2 4.01287 6.77118 -6.62214
1 -4.11771 7.01326 6.53486
2 -8.02391 0.195673 -7.03408
1 -4.14317 -7.01868 6.60621
1 4.08298 -6.96169 -6.68893
1 6.55039 -0.787123 8.87174
2 4.0635 5.56325 -8.88165
1 -2.72258 6.22259 8.72031
1 -6.61365 0.63178 -9.05222
2 -3.81083 -5.40418 8.76335
2 2.78689 -6.35766 -8.81161
3 9.57429 5.46321 -2.29295
2 -0.12107 10.8425 2.08721
2 -9.51178 5.19296 -2.20736
2 -9.50027 -5.61894 1.99652
2 -0.042768 -10.9458 -2.23204
1 9.55823 -5.61626 1.98696
3 1.52388 0.74229 11.397
2 1.2694 -0.764816 -10.8073
2 8.18026 6.14543 -4.56727
2 -1.29257 9.8402 4.52018
3 -9.60445 3.97387 -4.58046
3 -8.15885 -6.34448 4.47101
3 1.34819 -10.2602 -4.40295
2 9.28493 -4.06876 4.38445
2 -1.14308 0.784362 10.9141
2 0.0207977 1.65708 -10.9791
2 9.5369 3.7958 2.21741
2 1.30268 10.193 -2.19605
2 -8.22909 6.21158 2.26304
2 -9.28982 -3.81731 -2.16056
3 -1.39367 -10.1617 2.25049
2 7.83113 -6.25581 -2.31049
2 8.00172 3.20655 4.78005
3 -6.9361 5.5108 4.40627
3 -1.32912 -8.77795 4.25043
2 6.52008 -5.5816 -4.49759
2 6.71833 2.14812 6.76241
2 1.27669 6.88403 -6.83314
2 -5.33053 4.87017 6.62116
2 -6.70017 -2.20081 -6.63607
1 -1.34541 -6.97525 6.56679
2 5.29117 -4.55649 -6.56871
3 5.21026 1.4962 8.80998
2 1.49967 5.33389 -8.84029
3 -3.80164 3.51698 8.50318
3 -5.37619 -1.86547 -8.8711
2 -1.25014 -5.30232 8.89167
1 4.3827 -3.89245 -8.89152
2 8.20255 7.85545 -2.20988
3 -2.58212 10.7346 2.23032
1 -10.9234 2.95698 -2.40057
3 -8.20994 -8.04048 2.14702
2 2.8195 -11.0601 -2.16027
2 10.7078 -3.25741 2.33641
3 0.151246 3.02358 11.0351
2 2.68956 1.51958 -11.1009
2 8.08309 6.17331 2.31118
2 -1.19115 10.3797 -2.41462
3 -8.24742 -6.15227 -2.01577
2 1.2284 -10.0101 2.05049
2 9.38448 -3.952 -2.31964
2 6.93363 5.46512 4.40138
2 -1.3156 8.61585 -4.4595
2 -8.26368 3.31106 4.19807
2 -6.93477 -5.63347 -4.09669
2 1.16428 -8.60768 4.46443
1 7.98171 -3.25175 -4.54818
1 5.4112 4.61088 6.64259
2 -1.26595 7.09761 -6.63411
2 -6.78609 2.62451 6.4278
1 -5.56266 -4.87292 -6.19572
1 1.36806 -6.97732 6.6177
2 6.92854 -2.31146 -6.93689
2 4.11678 3.70562 8.9319
2 -1.28075 5.36257 -8.76666
2 -5.39912 1.54148 8.58191
2 -4.33602 -3.96726 -8.80476
1 1.50381 -5.48177 8.91539
2 5.34764 -1.3604 -8.79937
2 6.90347 8.50565 2.30834
1 -4.04765 10.1333 -2.29792
1 -10.105 2.89217 2.27426
1 -7.04446 -8.60809 -2.05105
3 4.06917 -10.0238 2.17987
1 10.6758 -1.50076 -2.22103
2 5.43812 7.64145 4.44774
3 -4.00297 8.5719 -4.37626
2 -9.58315 1.0976 4.24515
2 -5.55688 -7.94727 -4.3615
3 3.81167 -8.49015 4.24387
1 9.36028 -0.601093 -4.56388
2 4.07656 6.93896 6.75232
2 -3.96398 7.01683 -6.50957
1 -7.72127 -0.0150235 6.53737
2 -3.99646 -6.92896 -6.51046
3 4.02809 -7.18395 6.74825
3 8.16719 -0.0346207 -6.86413
2 2.85917 6.14642 8.81934
1 -4.01978 5.46898 -8.60961
2 -6.68058 -0.730323 8.72196
1 -2.74054 -6.15473 -8.97285
3 4.22937 -5.52147 9.0779
1 6.85643 0.951615 -9.01121
2 16.0674 -0.0491393 0.0297203
2 8.09173 14.1144 -0.117162
2 -8.26719 14.1136 -0.0444253
2 -16.1853 -0.244194 -0.179537
2 -8.13921 -13.9163 -0.00942606
3 8.0667 -14.0545 -0.0844024
1 7.04069 -5.18355 15.4266
2 0.0974922 9.47092 13.2899
2 -8.19484 -4.36567 13.3751
1 0.246141 -9.34272 -13.3005
3 8.06549 4.91968 -13.2024
3 -8.10177 4.37054 -13.1403
1 14.8659 2.22414 0.189808
1 14.7783 -0.755754 2.18282
2 14.8477 0.562162 -2.3087
3 5.5367 14.0703 -0.0525216
2 6.72231 13.1711 2.06683
2 7.92103 12.6048 -2.20607
1 -9.54657 11.8374 0.151049
1 -6.72383 13.4455 2.1366
3 -15.0476 -2.47312 0.0389637
2 -14.8941 -0.98155 2.02478
2 -14.7452 0.741241 -2.20006
1 -5.29716 -13.8195 -0.163421
1 -8.30589 -12.3804 2.11603
3 -6.83741 -13.1662 -2.24052
3 9.50244 -11.6178 -0.264785
3 6.68384 -13.2851 -2.1466
2 6.66426 -2.38842 13.3885
1 5.25193 -4.7514 13.2474
2 -1.16206 7.10152 13.31
3 1.43952 -6.88217 -13.2526
3 -1.22891 -7.00602 -13.4011
2 5.42049 4.84595 -13.3796
1 13.5059 -1.63801 4.58957
2 13.4231 1.4864 -4.50989
3 2.56209 13.9328 0.0398355
2 5.47663 12.5121 4.14139
1 8.15964 10.7833 -4.42104
2 -10.6967 9.44063 -0.0388447
1 -5.10844 12.6489 4.27626
1 -7.86268 11.1726 -4.25297
2 -13.6806 -4.82318 -0.463312
1 -13.3841 -1.7235 4.09122
3 -13.5495 1.4956 -4.3311
2 -2.68944 -14.057 0.307526
3 -8.25807 -11.088 4.54251
2 -5.55714 -12.4462 -4.47244
3 10.687 -9.25427 0.0517606
3 5.04303 -12.0679 -4.28316
3 5.4343 -0.0070968 13.4956
3 2.72569 -4.58051 13.2335
1 -2.52535 4.85759 13.3192
2 2.76287 -4.41492 -13.3879
2 -2.91127 -4.80544 -13.1963
3 2.68492 4.92046 -13.1687
2 12.2325 6.7803 -0.00222329
3 12.1288 -2.42647 6.74129
2 12.1252 2.29947 -6.62156
2 -0.0666131 14.2484 -0.0200214
1 4.07501 11.5569 6.6483
2 8.09395 9.3481 -6.54795
2 -12.0538 6.91473 0.0357681
1 -4.11175 11.7201 6.81055
2 -8.15408 9.38188 -6.81365
2 -11.9727 -6.99858 0.053937
2 -12.1587 -2.12481 6.32487
1 -12.1324 2.18167 -6.61426
2 0.0113399 -14.1705 -0.221721
2 -8.25816 -9.53754 6.62757
1 -3.75771 -11.5764 -6.56
3 12.0024 -6.89884 -0.0342362
2 8.16679 -9.54392 6.64003
3 4.08868 -11.7766 -6.54827
1 3.98169 2.54049 13.3767
3 -0.0229295 -4.72226 13.1429
2 -3.84113 2.63344 13.1226
1 3.38617 -1.84833 -13.9968
1 -4.28885 -2.57198 -13.2711
2 -0.0331443 4.74776 -13.3493
1 11.0633 9.2056 -0.0753814
2 10.5905 -3.20818 8.82486
2 10.9697 3.45063 -8.82166
2 -2.8378 14.1456 0.0511234
2 2.74572 11.0686 8.76989
3 8.09524 7.87819 -8.80976
2 -13.4041 4.74766 0.0571201
3 -2.6325 10.9471 8.84669
1 -7.94368 7.67581 -8.78521
2 -10.9088 -9.45504 0.0728825
2 -10.8672 -2.91407 8.56532
3 -11.0207 3.17212 -9.03942
2 2.70845 -14.1746 0.171207
1 -8.29832 -7.76317 9.0409
3 -2.52772 -10.8053 -8.9128
2 13.5359 -4.69425 0.100306
1 8.10005 -7.92085 8.87256
3 2.6095 -10.9021 -8.59329
3 2.68856 4.79625 13.3895
1 -2.61608 -4.61459 13.2548
2 -5.27532 0.0929291 13.0596
1 5.34854 -0.170186 -13.2383
2 -5.57354 -0.125369 -13.4164
3 -2.8097 4.73613 -13.0949
2 9.47537 -4.08153 11.2538
3 9.70641 4.22254 -11.1005
2 -5.28491 14.1598 -0.14874
2 1.33411 10.3669 11.1301
2 8.22712 6.43457 -11.1976
2 -14.7625 2.38922 0.0119111
3 -1.1631 10.1048 10.9825
2 -8.27791 6.05941 -11.0295
3 -9.63659 -11.7385 0.0409441
2 -9.53634 -3.85133 10.9451
1 -9.81106 3.94649 -11.1685
1 5.29652 -13.9717 0.101475
2 -8.24107 -6.42682 11.06
1 -1.16644 -9.91272 -11.041
2 14.6665 -2.30998 -0.130138
3 8.13237 -6.24193 11.1004
2 1.29094 -10.1088 -10.9109
2 1.41947 7.03859 13.4359
2 -5.47058 -4.44887 13.473
2 -6.63351 -2.13942 13.3175
1 6.73792 2.35289 -13.2837
1 -6.78133 2.08987 -13.433
2 -5.63892 4.53457 -12.9594
1 13.5093 4.51291 0.056218
2 4.13248 13.1535 2.139
2 -9.13995 10.2511 -2.29807
2 -13.5819 -3.17991 1.92094
2 -3.99432 -13.0944 -2.16636
2 9.61356 -10.1476 2.06797
3 4.13328 -2.39613 13.3399
2 -0.0371168 -4.73761 -13.1586
2 12.2006 3.89709 -4.68984
2 2.77304 12.3335 4.36416
2 -9.38676 8.69827 -4.58526
2 -12.1051 -3.93081 4.19978
2 -2.72268 -12.2838 -4.57032
2 9.42593 -8.8344 4.36544
3 1.36417 -2.33952 13.4011
3 -1.53708 -2.54296 -13.042
1 10.9647 5.03933 -6.72738
2 1.47614 11.7722 6.67617
2 -9.55541 6.77108 -6.4965
1 -10.9992 -4.58962 6.6002
1 -1.09065 -11.7164 -6.46908
2 9.45297 -7.15866 6.38657
3 -1.10193 -2.44094 13.2121
2 -2.70509 -0.0906071 -13.0855
1 9.50621 5.51102 -8.90566
3 0.316125 10.7894 8.74518
2 -9.4612 5.37359 -8.81723
2 -9.59372 -5.47535 8.8482
2 0.0215859 -10.7085 -8.81372
2 9.42841 -5.7686 8.79813
2 -3.81368 -2.28484 13.249
1 -4.05598 2.34456 -13.2691
3 13.385 1.64787 2.27258
1 5.42839 12.4465 -2.26724
1 -7.90005 11.1111 2.34501
1 -13.6071 -1.43447 -1.98637
2 -5.44148 -12.3405 2.07251
1 7.90943 -10.9216 -2.23477
1 12.1034 0.719252 4.27831
3 5.53586 11.1016 -4.56297
1 -6.63367 10.0682 4.61459
2 -12.2253 -0.838354 -4.57888
1 -5.40228 -10.9644 4.68328
2 6.86267 -10.07 -4.31262
2 10.8374 -0.0784804 6.58273
2 5.38121 9.37926 -6.73871
2 -5.31814 9.45211 6.69172
2 -10.8672 -0.259786 -6.79316
3 -5.42647 -9.31847 6.86098
1 5.27975 -9.44484 -6.77479
2 9.33162 -1.02839 8.87299
1 5.43141 7.91618 -8.98911
3 -3.92668 8.54285 8.66519
3 -9.42303 0.761063 -9.16467
2 -5.53398 -7.60327 8.72141
3 4.01205 -8.7146 -8.6441
2 7.89636 -1.76475 10.9536
2 5.55614 6.25762 -11.1258
2 -2.80185 7.89309 10.891
2 -8.06333 1.35275 -11.1269
3 -5.3157 -6.32802 10.9809
1 2.82019 -7.73754 -10.9814
2 12.1613 5.27488 -2.01354
2 1.35501 13.2926 2.23199
2 -10.5627 7.73559 -2.30518
2 -12.2033 -5.42777 2.27572
2 -1.35161 -13.2257 -2.35986
1 10.769 -7.93384 2.43484
2 2.78664 -0.187564 13.2122
3 1.11037 -2.12182 -13.0456
1 10.7721 6.3118 -4.45904
2 0.0844338 12.4582 4.11683
1 -10.9265 6.21749 -4.44247
1 -10.8663 -6.12976 4.51713
3 0.0698333 -12.439 -4.43816
2 10.5838 -6.28362 4.27854
2 -0.0465176 -0.0426908 13.1948
2 -1.40296 11.6237 6.83205
2 -10.9086 4.42372 -6.61164
1 -9.46914 -6.95176 6.61087
2 1.557 -11.5077 -6.54106
2 10.7232 -4.9549 6.65691
2 -2.40882 0.0391803 13.3436
2 -1.48844 2.29548 -13.0499
2 12.2529 4.0269 2.29028
3 2.63648 12.4332 -1.95219
2 -9.55429 8.86536 2.38021
3 -12.1019 -3.83439 -2.46635
3 -2.7636 -12.2987 2.06402
2 9.12805 -8.55941 -2.28402
2 10.6585 3.16742 4.46137
1 2.78047 10.9385 -4.04213
3 -8.26161 7.7342 4.25766
3 -10.7328 -2.98229 -4.52737
2 -2.70782 -10.8808 4.39036
3 8.01058 -7.82752 -4.4991
3 9.28436 2.09691 6.6576
2 2.62934 9.15508 -6.4952
1 -6.76302 7.27272 6.56173
2 -9.42709 -2.49973 -6.70637
3 -2.72738 -9.40036 6.77583
1 6.84894 -7.22247 -6.75519
2 8.07636 1.39071 8.91541
3 2.71545 7.82931 -8.92209
1 -5.43465 6.39157 9.06416
1 -8.02268 -1.57709 -8.72112
1 -2.68217 -7.75979 8.83815
1 5.33369 -6.34892 -8.91188
2 6.67364 0.791744 11.0449
2 2.75881 6.36464 -11.1704
3 -3.95339 5.44322 10.9808
3 -6.7911 -1.00533 -11.1065
2 -2.55913 -6.34358 11.1963
2 4.03044 -5.33015 -11.0891
1 10.7647 7.82199 -2.25218
2 -12.1547 5.58842 -2.36851
2 -10.9334 -7.99259 2.49861
2 1.48712 -13.2547 -2.27817
2 12.1524 -5.60625 2.16167
2 1.29865 2.5963 13.2736
2 2.19566 0.213293 -13.2275
2 9.66785 8.43151 -4.53505
2 -2.62485 12.5052 4.13008
3 -12.383 3.86042 -4.44534
3 -9.53158 -8.53719 4.56496
2 12.0659 -3.96797 4.60599
3 -1.34173 2.34018 13.4866
3 1.09197 2.59967 -12.9783
2 10.7338 6.31297 2.15541
3 0.316398 12.5986 -2.33037
3 -10.9029 6.65982 2.35796
2 -10.8377 -6.04673 -2.17481
2 -0.169221 -12.5059 2.23855
2 10.4551 -6.33042 -2.24158
1 9.62443 5.43272 4.32306
2 0.0885359 10.8767 -4.44248
3 -9.4991 5.61323 4.36736
2 -9.47876 -5.50004 -4.29167
2 -0.111138 -10.9749 4.52044
3 9.06655 -5.38617 -4.47945
1 -8.15232 4.76685 6.52578
2 -8.10034 -4.68484 -6.58552
2 -0.120913 -9.43 6.55178
2 8.12543 -4.82827 -6.80525
2 6.95316 3.76963 8.70543
2 0.0331022 7.752 -9.06927
1 -6.66198 4.04761 8.77305
2 -6.97429 -4.05739 -8.78485
2 -0.00567884 -7.81593 8.99446
2 5.51638 3.07046 11.2792
2 0.0288696 6.47551 -11.0914
2 -5.12521 3.21987 10.8785
2 -5.67889 -3.34485 -11.0305
3 0.0482344 -6.22793 11.0722
2 5.33213 -3.00651 -11.0373
1 -3.93311 13.2524 2.05774
2 -13.4565 2.98042 -2.13257
2 -9.41985 -10.1701 2.2008
3 3.94448 -13.4895 -2.1336
3 13.5714 -3.07181 2.11057
2 -0.0304628 4.85467 13.332
1 3.93823 2.28534 -13.2446
3 9.44537 8.42544 2.14622
3 -2.76318 12.4637 -2.1789
3 -12.2456 4.06146 2.12295
3 -9.64969 -8.31308 -2.32702
1 11.9551 -4.13826 -2.09783
3 8.23714 7.58052 4.5132
1 -2.57944 10.9345 -4.52199
2 -11.0801 3.38818 4.49713
3 -8.14121 -7.83716 -4.36917
2 2.66829 -10.7919 4.18953
1 10.7727 -3.21375 -4.33669
2 6.84335 7.17215 6.63761
2 -2.67799 9.28327 -6.65369
1 -9.57786 2.54278 6.49592
3 -6.82494 -7.09607 -6.57414
3 2.69089 -9.32012 6.49582
1 9.31581 -2.48082 -6.82328
2 5.48645 6.26456 8.84944
3 -2.55975 7.81589 -8.90638
1 -8.01779 1.73076 8.72683
3 -5.46556 -6.17672 -8.61437
2 2.68258 -7.82873 8.79102
3 8.10639 -1.55917 -9.03432
3 4.0479 5.13796 11.0606
2 -2.76625 6.30042 -10.9819
2 -6.75298 0.773183 10.8887
2 2.70451 -6.07276 11.1121
2 6.66983 -0.752396 -11.0629
2 8.08505 10.7074 2.04591
1 -5.37848 12.436 -2.27983
3 -13.6627 1.4251 2.18614
2 5.01966 -12.5816 2.26486
3 6.83667 10.2065 4.24958
3 -5.32934 10.8975 -4.49209
1 -12.2009 0.881706 4.20764
2 -7.05749 -10.1433 -4.31156
3 5.13506 -10.9052 4.16747
1 12.1969 -0.766688 -4.38345
1 5.5059 9.26854 6.44781
2 -5.39582 9.37549 -6.68164
2 -10.8825 0.106343 6.3746
2 -5.22205 -9.3317 -6.5938
2 5.34031 -9.36974 6.67817
1 10.9341 -0.0172115 -6.7976
2 4.07743 8.65656 8.70183
2 -5.36927 7.7961 -8.68833
2 -9.36079 -0.634549 8.91146
1 -3.87821 -8.5042 -8.99952
3 5.31355 -8.01095 8.81079
2 9.41701 0.902793 -8.86139
2 2.78218 7.66701 10.8204
2 -5.60648 6.31458 -10.7711
2 -7.9923 -1.60371 11.1038
3 -2.58005 -7.74052 -11.0939
2 5.4994 -6.46307 11.1108
3 18.9806 0.0277275 -0.15215
3 9.46559 16.1419 0.208347
3 -9.38607 16.4086 -0.0919477
3 -19.1257 -0.0696902 -0.0520459
1 -9.65434 -16.4925 -0.02785
2 9.19794 -16.3909 -0.205204
1 9.61187 -5.43325 15.9105
2 0.109094 11.1619 15.5971
2 -9.32885 -5.29108 15.4266
3 0.294943 -10.9684 -15.3702
3 9.38079 5.15612 -15.7228
3 -9.62484 5.43755 -15.4686
3 17.521 2.32482 -0.0613554
1 17.5009 -0.83411 1.98215
2 17.4721 0.8739 -2.20448
2 6.75389 16.4161 0.000268811
2 8.01771 15.6739 2.16582
1 9.39846 14.781 -2.24317
3 -10.7235 14.1614 0.0839135
2 -8.07458 15.7214 2.22731
3 -9.68611 14.76 -2.16877
1 -17.7271 -2.35251 -0.0975761
3 -17.658 -0.870456 2.08822
2 -17.6327 0.786079 -2.0166
2 -6.95528 -16.493 -0.0775911
3 -9.46648 -14.8528 2.09135
2 -8.09486 -15.483 -2.5837
1 10.7528 -13.9512 -0.0238971
2 9.209 -14.8135 1.98791
2 7.87517 -15.4772 -2.29877
2 8.34824 -3.07644 15.7159
1 5.33314 -3.13371 15.5208
1 -0.992863 8.17568 15.5673
3 1.55996 -8.60165 -15.3774
3 -1.02162 -8.68383 -15.4725
2 6.72955 5.47506 -15.5763
2 16.1556 4.70065 0.209904
1 16.0372 -1.56671 4.37122
2 16.103 1.5616 -4.44174
1 4.04644 16.3514 -0.0218604
3 6.92284 14.7166 4.1848
1 9.38145 13.2006 -4.35321
2 -6.73426 14.8593 4.31326
3 -9.44727 13.1916 -4.32745
2 -16.5334 -1.56016 4.60543
3 -16.0441 1.55714 -4.42081
2 -4.17962 -16.3574 0.0103994
2 -9.50809 -13.6409 4.45948
2 -6.70308 -14.7888 -4.55786
3 11.9779 -11.6262 -0.109725
1 9.15431 -13.1105 4.26695
1 6.7363 -0.791459 15.7832
2 3.79356 -5.52157 15.4341
1 -2.39919 6.25083 15.5806
2 2.68783 -6.33696 -15.3886
2 -2.43231 -6.24052 -15.4476
1 4.07703 5.54781 -15.4964
3 15.0527 7.31888 -0.0522112
1 14.8333 -2.45739 6.51452
3 14.8966 2.48916 -6.76204
1 1.32937 16.342 -0.146984
2 5.30645 13.9807 6.6706
3 9.41656 11.6328 -6.72259
2 -13.4291 9.36076 0.319567
1 -5.36598 14.0503 6.63677
1 -9.44527 11.7445 -6.60806
3 -14.639 -7.01482 0.13811
2 -14.7998 -2.35122 6.20785
2 -14.5767 2.39433 -6.58987
2 -1.40228 -16.5469 -0.214489
1 -9.46992 -12.2068 6.58305
2 -5.2254 -13.8243 -6.80036
2 13.3734 -9.39445 0.0254068
3 9.31675 -11.8116 6.60043
2 5.46538 -14.057 -6.38232
1 5.41266 1.6275 15.6479
1 -3.94767 3.92321 15.4483
1 4.18723 -3.70269 -15.5176
2 -3.99575 -3.9327 -15.4946
3 1.26488 5.42545 -15.3432
2 13.5392 9.33706 0.11756
1 13.6811 -3.13531 8.72084
2 13.6694 3.42077 -8.94233
2 -1.2259 16.4066 0.157238
3 3.98817 13.3552 8.80483
2 9.47912 10.0968 -8.66102
1 -13.2714 7.78767 -2.26216
3 -3.96673 13.3195 8.86106
2 -9.46644 10.0315 -8.77965
3 -13.4093 -9.12974 0.114625
1 -13.4239 -3.20535 8.70293
1 -13.5694 3.01373 -8.81167
3 1.16286 -16.4273 0.0856485
2 -9.18326 -10.2495 9.11798
2 -3.8048 -13.2241 -8.94084
3 14.6009 -7.18625 -0.0426614
1 9.47866 -10.2338 8.75396
2 3.92133 -13.3144 -8.61307
3 3.94658 4.01297 15.6058
1 -1.10352 -5.53569 15.4672
2 -5.51913 1.54097 15.2185
1 5.31792 -1.4936 -15.5085
2 -5.48144 -1.88486 -15.7487
3 -1.50477 5.24895 -15.156
1 12.142 11.6302 -0.176707
2 12.2149 -3.80405 10.7659
2 12.2543 3.95631 -11.0798
3 -4.01294 16.4691 -0.179733
3 2.78707 12.5882 10.9218
3 9.49014 8.88345 -10.9563
1 -15.7231 5.28859 -0.0244949
3 -2.56203 12.4374 10.8404
2 -9.32451 8.51024 -10.8908
3 -12.3152 -11.8199 0.00137728
3 -12.0889 -3.96446 10.8199
2 -12.5464 3.86854 -11.1819
3 3.96448 -16.3778 -0.0515241
3 -9.59799 -8.68204 11.2284
2 -2.26808 -12.3858 -11.0357
3 16.0721 -4.73322 -0.158979
3 9.402 -8.68556 10.7863
2 2.72193 -12.3976 -10.8532
2 2.47846 6.29989 15.6347
2 -4.05357 -5.32629 15.6129
2 -6.60834 -0.841403 15.4072
3 -6.64151 0.301741 -15.6006
3 -4.28518 5.42899 -15.3196
1 10.7494 13.8847 -0.110657
3 10.7308 4.64064 -13.4188
1 -6.81382 16.3401 -0.0930417
3 1.42082 11.7209 13.3057
3 9.55782 6.9189 -13.3224
3 -17.3424 2.34354 -0.0997542
2 -1.36747 11.5904 12.9797
1 -9.24612 7.01541 -13.5453
3 -10.8463 -13.8822 -0.102508
3 -10.7454 -4.67894 13.2118
1 -10.8783 4.69895 -13.5504
3 6.67737 -16.4526 -0.0603623
2 -9.52711 -6.95421 13.3141
3 -0.972521 -11.577 -13.1803
1 17.4448 -2.53107 0.0384525
2 9.48359 -7.60886 12.9534
2 1.53309 -11.8211 -13.2499
2 1.47467 8.80984 15.4163
1 -6.70832 -5.63327 15.2624
2 7.98998 3.11837 -15.4217
3 -8.38887 3.09056 -15.4549
2 15.7395 3.05492 -1.87735
2 5.36597 15.6122 2.06407
3 -10.4055 12.4788 -2.34019
1 -16.2759 -3.06632 2.28587
3 -5.5682 -15.541 -2.24061
2 10.6113 -12.5551 2.00784
1 0.234044 -6.19017 -15.4525
2 14.7749 3.92834 -4.73408
2 4.08427 14.7799 4.31007
1 -10.6597 11.06 -4.2738
3 -14.7056 -3.98485 4.12406
1 -3.87831 -14.7082 -4.50588
3 10.7095 -11.1037 4.51752
3 2.69108 -3.19242 15.4129
1 -1.31411 -3.84748 -15.3568
3 2.71143 14.0797 6.58228
3 -10.7298 9.20728 -6.52996
3 -2.76072 -14.0274 -6.75079
3 10.8012 -9.4319 6.69372
2 0.0474707 -3.36544 15.4887
1 -2.7335 -1.57793 -15.2184
2 12.2279 5.7085 -8.60883
1 1.38439 13.2712 8.84475
1 -10.9894 7.7273 -8.7445
1 -12.2779 -5.57367 8.74163
2 -1.32726 -13.187 -8.67102
2 10.7711 -7.91874 8.8295
3 -2.62562 -3.20456 15.5635
3 -4.12815 0.658727 -15.4209
3 -0.0365339 12.6401 10.9498
2 -10.9999 6.3538 -11.3676
2 -10.9787 -6.32039 11.1408
1 0.235734 -12.5674 -11.1737
2 10.7333 -6.52408 11.0373
3 -5.34339 -3.00503 15.4746
3 -5.45651 3.12973 -15.3947
3 16.1675 1.5239 2.15851
3 6.64677 14.8345 -2.23479
3 -9.39375 13.2758 2.143
1 -16.2115 -1.55088 -2.25901
3 -6.71079 -14.6019 1.92647
3 9.42967 -13.2636 -2.34942
2 14.899 0.797471 4.21099
2 6.54212 13.3926 -4.56878
2 -8.20563 12.3884 4.69992
1 -14.7325 -0.746411 -4.36162
2 -6.69305 -13.3733 4.32741
1 7.83819 -12.5843 -4.44088
2 13.5648 -0.070946 6.29948
2 6.71044 11.8665 -6.69881
2 -6.73512 11.7522 6.79684
3 -13.5457 -0.00981482 -6.5652
2 -6.72891 -11.7294 6.38523
2 6.69238 -11.6623 -6.69321
1 12.004 -0.753449 8.97482
2 6.70724 10.1675 -8.93469