2891
 Atoms. Timestep: 6000
2 -0.0495536 -0.256017 -0.0214547
3 2.61189 -0.000451696 0.124171
2 1.43919 2.28575 0.0435512
2 -1.22873 2.35039 -0.0652438
3 -2.71338 -0.082165 -0.0142631
2 -1.42037 -2.50453 -0.0058975
2 1.34313 -2.55635 0.139493
1 1.28844 -0.950873 2.18637
3 0.0727105 1.50821 1.93198
2 -1.44629 -0.880654 2.15392
3 1.21973 0.931856 -2.08708
2 -1.21156 0.716764 -2.11979
2 5.37236 -0.292966 -0.0696453
1 -2.64412 4.66629 -0.038291
3 -5.51418 -0.104311 0.0302411
1 -2.75342 -4.8352 0.0473642
2 2.70151 -4.81383 -0.00294033
1 2.61336 -1.71896 4.39503
3 -0.199519 2.88671 4.30808
2 -2.93383 -1.43206 4.49366
1 0.0663054 -3.20867 -4.33224
1 2.52495 1.62698 -4.22392
2 -2.55077 1.60134 -4.34082
2 4.15493 2.01219 0.0786309
2 4.14435 -0.854135 2.2487
2 3.94353 0.676981 -2.13751
1 -0.0167482 4.75924 0.0928445
2 1.25059 3.82246 2.20934
2 2.70523 3.12434 -2.01317
1 -4.07123 2.23928 0.00020602
2 -1.31298 3.82622 2.18617
1 -2.62232 3.14973 -2.24812
2 -4.03603 -2.39938 -0.216309
2 -4.1528 -0.925697 2.08074
3 -3.96681 0.753912 -2.2386
2 0.100246 -4.8496 0.105991
2 -2.65323 -3.18758 2.29009
2 -1.22248 -3.95078 -2.17039
3 4.07514 -2.5276 0.133739
3 2.88958 -3.35306 2.21038
2 1.49123 -4.13753 -2.25174
1 1.27159 0.760197 4.40898
2 -0.270012 -1.63859 4.51138
1 -1.34766 0.52185 4.3831
1 1.19145 -0.829964 -4.13134
2 -1.57352 -0.756553 -4.40814
1 -0.082421 1.59311 -4.44833
2 2.74278 1.59692 2.17615
1 0.0641677 3.32372 -2.12948
1 -2.63153 1.49545 2.22261
1 -2.52036 -1.55569 -2.27636
3 -0.0936732 -3.21274 2.39897
3 2.55667 -1.76998 -2.02348
2 8.10862 -0.20388 -0.0532417
1 3.94168 6.88877 -0.133733
2 -4.19338 6.96763 -0.0245004
1 -4.10493 -7.02595 0.113394
2 4.25361 -7.13178 -0.0191752
2 4.03544 -2.1972 6.601
1 0.186226 4.82151 6.3388
2 -4.12559 -2.31916 6.69228
3 -0.0812089 -4.73735 -6.5845
2 3.77684 2.20002 -6.62538
2 -4.10582 2.29972 -6.55816
2 6.83899 2.42778 0.0351717
3 6.76257 -0.90002 2.11912
1 6.70116 0.725812 -2.20805
2 1.16227 7.02944 -0.0385836
3 2.63919 6.19244 1.99728
3 3.89214 5.43434 -2.29792
2 -5.33698 4.56695 -0.0416145
1 -2.64649 6.29847 2.07228
2 -4.09671 5.41548 -2.33123
2 -6.69306 -2.57255 0.016367
1 -6.81333 -0.934584 2.19606
2 -6.66421 0.744645 -2.23155
2 -4.14382 -5.62458 2.19427
2 -2.78662 -6.37192 -2.23828
1 5.53639 -4.92249 -0.0179612
2 4.20073 -5.48753 2.20573
3 2.76176 -6.49024 -2.09655
1 2.57084 -0.00434362 6.84992
2 1.0613 -2.37658 6.57977
2 -1.4134 2.4615 6.5677
1 1.33231 -2.40338 -6.51921
1 -1.35921 -2.52467 -6.61293
1 5.02132 4.43067 -0.0150689
1 5.42894 -1.61571 4.42305
3 5.03781 1.65946 -4.35508
2 -1.47336 7.10667 -0.19764
1 4.01206 3.89435 -4.47435
1 -6.74293 2.20243 0.0359748
2 -1.20284 5.60746 4.38782
2 -4.07381 3.84254 -4.44915
3 -5.35871 -4.65873 -0.0590282
3 -5.45639 -1.57862 4.30418
3 -5.31827 1.49698 -4.25046
2 1.44442 -7.0914 -0.0232587
3 -4.06783 -3.70997 4.41718
1 -1.52298 -5.51604 -4.45731
1 6.78522 -2.46282 0.00960949
1 4.18068 -3.98088 4.38941
1 1.35513 -5.52507 -4.30459
2 1.30678 2.35088 6.53899
1 -1.74197 -2.14071 6.62734
2 2.72885 -0.157712 -6.59443
2 -2.72341 -0.0133435 -6.68109
2 -1.31203 2.30637 -6.52829
2 5.35669 3.00863 -2.16508
2 -0.00770808 6.18074 2.15365
1 -5.47112 3.09476 -2.18032
3 -5.34849 -3.37645 2.18161
2 0.0286007 -6.40569 -2.22061
2 5.477 -3.26506 2.07629
1 -0.13902 -0.00346905 6.5305
2 0.100257 -0.00220944 -6.47682
1 5.58306 1.36019 2.00374
1 1.32739 5.62748 -2.23781
2 -3.89596 4.01221 2.32666
2 -1.4065 -5.64311 2.11802
3 4.07612 -4.24349 -2.10308
1 3.98748 0.727231 4.24679
1 1.26729 3.90741 -4.37661
2 -2.80431 3.15671 4.37227
2 -4.09798 -0.890415 -4.38764
2 -1.53805 -3.98132 4.52469
1 2.63204 -3.20245 -4.35998
2 3.96122 3.77668 2.28189
3 -1.20606 5.51785 -2.26603
2 -5.17856 1.39525 2.16295
3 -3.96399 -4.01443 -2.148
2 1.41389 -5.58284 2.24588
1 5.2176 -1.79243 -2.19624
3 2.68141 3.03414 4.53596
3 -1.32282 3.9743 -4.48637
1 -4.30966 0.734132 4.31329
2 -2.54043 -3.12584 -4.32132
2 1.26881 -4.09338 4.3855
2 10.7543 -0.0434889 -0.0470815
1 5.16354 9.44934 -0.378981
3 -5.38087 9.42669 0.0354121
2 -10.447 0.00579615 -0.223303
2 -5.54034 -9.59807 -0.0631771
1 5.38387 -9.45 0.0711029
2 5.41301 -3.05467 9.06304
2 -0.0580952 6.29633 8.70684
2 -5.54767 -3.21139 8.68324
3 -0.0552774 -6.12098 -8.92192
1 5.35828 3.0501 -8.94946
2 -5.36332 3.15259 -8.86793
2 9.53026 2.29803 -0.0160342
2 9.58507 -0.652076 2.13684
1 9.31752 0.818493 -2.18508
1 2.58646 9.42419 -0.220164
1 4.03001 8.63526 1.94946
2 5.2492 7.77795 -2.23947
2 -6.69836 6.98327 0.0469887
1 -3.93576 8.66628 2.13351
1 -5.4487 7.92585 -2.25934
3 -9.46973 -2.4244 0.062903
2 -9.42176 -0.741453 2.09922
3 -2.92226 -9.2587 0.0384629
1 -5.3857 -7.79636 2.27842
1 -4.14607 -8.75667 -2.17847
2 5.41278 -7.88926 2.40803
1 4.10101 -8.84797 -2.13128
2 3.98824 -0.762589 8.94117
2 2.67424 -3.33266 8.95937
2 -1.44355 3.85727 8.75388
2 1.25824 -3.93117 -8.83143
2 -1.25617 -3.96113 -8.69018
2 2.68401 2.93371 -8.92353
3 7.65872 4.84019 0.0677168
1 8.08923 -1.53925 4.48913
3 8.02437 1.60582 -4.48877
3 0.0263864 9.39874 -0.286924
3 2.63423 7.82451 4.26617
2 5.33316 6.18154 -4.46249
3 -7.89365 4.65285 -0.213479
1 -5.35969 6.47035 -4.619
1 -8.02888 -4.69198 0.0775969
1 -8.1987 -1.59057 4.39907
2 -7.81571 1.60943 -4.42438
1 -0.246546 -9.47856 0.134325
1 -5.41065 -6.27242 4.40075
3 -2.80793 -7.9398 -4.51801
3 8.12145 -4.74375 0.0371433
2 5.25762 -6.24551 4.45104
1 2.6009 -7.99099 -4.37848
1 -0.0858393 -3.08349 8.849
2 -2.66834 1.48123 8.64997
2 2.76641 -1.60846 -8.72411
2 -2.74368 -1.77701 -8.56847
3 -0.127529 3.20224 -9.00933
2 6.59872 7.03509 -0.0757427
3 6.63106 -2.41802 6.71252
1 6.63062 2.219 -6.70364
2 -2.68202 9.50656 0.0310101
3 1.42863 7.06802 6.66036
1 5.25566 4.53716 -6.71755
2 -9.23472 2.37069 -0.170498
1 -1.37232 7.14386 6.47257
2 -5.41119 4.68178 -6.76596
1 -6.82257 -7.06688 0.101392
2 -6.77346 -2.24231 6.55233
3 -6.72685 2.41891 -6.5942
2 2.83958 -9.45081 -0.0536091
3 -5.26704 -4.55876 6.64324
1 -1.3812 -6.93605 -6.65677
2 9.4757 -2.30473 0.163769
1 5.38959 -4.70231 6.89674
3 1.47448 -7.08435 -6.57656
2 1.42395 3.7773 8.63254
2 -2.76844 -3.23542 8.8124
3 -3.87293 -0.719265 8.88013
3 4.0781 0.730622 -8.85209
2 -4.27595 0.773503 -8.79587
3 -2.76511 3.12028 -8.78087
3 8.04134 3.26151 -2.01776
1 1.3179 8.50884 2.00863
2 -6.66453 5.37783 -2.3923
2 -8.15365 -3.1119 2.27616
2 -1.54871 -8.6643 -2.23805
1 6.85506 -5.56849 2.10662
1 -0.234312 -1.41142 -8.759
2 6.72708 3.74993 -4.31509
3 0.0836479 7.82979 4.29106
3 -6.63908 4.04449 -4.68177
2 -6.65507 -4.01797 4.42468
2 -0.000758304 -7.9525 -4.51922
2 6.73951 -3.96681 4.44153
1 -1.28776 -0.80116 8.80448
3 -1.44472 1.1457 -8.7753
3 8.17395 1.58404 2.22726
2 2.64271 7.75225 -2.26565
3 -5.45812 6.32683 2.2619
2 -8.06089 -1.63319 -2.00269
1 -2.49483 -7.81415 2.08687
3 5.40735 -6.34735 -2.16675
1 6.76395 0.734174 4.29664
1 2.56281 6.40542 -4.39724
2 -6.83728 -0.935364 -4.47013
3 -2.74359 -6.44147 4.26451
3 4.05211 -5.69191 -4.47774
2 5.39666 0.0565267 6.66467
3 2.5876 4.65543 -6.55047
1 -2.69001 4.89679 6.57369
1 -5.49558 0.0047094 -6.50022
2 -2.81099 -4.78225 6.54936
1 2.72533 -4.68383 -6.60677
2 6.57907 5.35596 -2.2427
1 -1.27779 8.64077 2.20596
3 -7.97133 3.10012 -2.21282
1 1.28456 -8.77422 -2.1589
1 8.07841 -3.08007 2.15739
3 -0.170248 1.50866 8.69396
2 1.20857 0.752276 -8.78991
1 6.5977 3.77998 2.23869
3 -0.0614041 7.99887 -2.35808
3 -6.4132 3.94744 2.34777
3 -6.59936 -4.03393 -2.25142
3 0.153503 -7.85985 2.20693
3 6.78598 -4.07097 -2.17667
2 5.30062 2.97437 4.42949
3 -0.0614228 6.39571 -4.52825
1 -5.25989 3.14627 4.33335
1 -5.42159 -3.20718 -4.2505
2 -0.0432206 -6.45541 4.51684
2 5.31294 -3.31118 -4.02308
3 4.01199 2.14325 6.54914
1 -4.01774 2.49511 6.62022
1 -4.03624 -2.4414 -6.53826
2 -0.117496 -4.77922 6.66559
2 4.09565 -2.63169 -6.48943
2 5.48226 6.0504 1.92759
2 -2.71545 7.87718 -2.32806
2 -8.06585 1.58574 2.15305
3 -5.4502 -6.335 -2.06076
1 2.7794 -7.94098 2.11102
1 7.9372 -1.5667 -2.14356
2 3.98945 5.53248 4.2277
2 -2.5572 6.40883 -4.47247
2 -4.15439 -5.48569 -4.30212
1 2.84479 -6.3818 4.32506
2 6.48369 -0.791248 -4.42885
3 2.60415 4.55749 6.62664
2 -2.59569 4.52386 -6.64916
3 -2.81811 -4.70883 -6.80036
1 2.71645 -4.61328 6.59059
1 5.18238 -0.104863 -6.41804
2 13.7158 0.0364098 -0.0681568
3 6.56504 11.7748 0.0132199
2 -6.72926 11.6444 0.0797229
2 -6.76115 -11.8324 0.140479
3 6.6906 -11.7094 0.0850666
2 6.7022 -3.9613 11.118
1 -0.257751 7.84666 10.8655
2 -6.74812 -4.13105 11.0039
1 -0.0860825 -7.84197 -10.9913
2 6.91789 3.73398 -11.0935
2 -6.68334 3.9183 -11.0591
3 12.2792 2.35122 0.0487412
2 12.1078 -0.873426 2.11738
2 11.978 0.776354 -2.17546
2 4.00663 11.7773 -0.0849237
2 5.31959 10.8341 2.27497
1 6.79193 10.2374 -2.21501
1 -8.02736 9.37306 -0.0763764
1 -5.20457 10.9821 2.19332
3 -6.61078 10.1801 -2.2066
2 -12.0893 -2.24055 0.143181
2 -12.1872 -0.737765 2.51742
1 -11.8004 0.880276 -2.24049
2 -4.03661 -11.7632 -0.0279818
1 -6.75085 -10.0592 2.16971
2 -5.58751 -11.0519 -2.08517
1 8.03946 -9.32885 0.141095
2 6.5884 -10.1402 2.06129
2 5.14814 -1.66522 11.1615
2 3.81005 -3.93879 11.1134
1 -1.37817 5.40607 11.0686
1 1.41171 -5.5414 -11.1292
2 -1.34194 -5.6122 -11.0655
2 4.23499 3.85514 -11.21
1 10.6221 4.57777 0.0559613
3 10.8629 -1.65619 4.42928
3 10.8201 1.55942 -4.40495
1 1.25638 11.7091 -0.136821
1 3.95841 10.1068 4.30889
1 6.69886 8.49264 -4.44012
2 -9.38993 7.02403 -0.0686788
1 -3.9384 9.98522 4.44843
2 -6.49329 8.7217 -4.5365
1 -10.6254 -4.70844 0.0645629
3 -10.6534 -1.51186 4.57867
3 -10.5993 1.54572 -4.43365
3 -1.38405 -11.8175 -0.077883
2 -6.83376 -8.58088 4.4737
2 -4.0251 -10.2147 -4.34423
1 9.60066 -6.97048 -0.09625
1 6.66565 -8.68767 4.59086
3 3.79449 0.60449 11.0139
3 1.23468 -3.93867 10.9607
2 -2.67744 3.23226 11.0291
2 2.70198 -3.22455 -11.0702
2 -2.74428 -3.16825 -11.0702
2 1.36164 3.76996 -11.0427
1 9.28347 7.08692 -0.159009
2 9.48572 -2.39399 6.5852
2 9.25812 2.22021 -6.60056
2 -1.35764 11.596 0.00911282
3 2.80305 9.2647 6.49289
2 6.69808 7.10212 -6.69819
1 -10.6566 4.61644 0.205411
1 -2.58922 9.48326 6.60608
2 -6.61168 7.20116 -6.78864
1 -9.35553 -6.99849 0.0768317
1 -9.32235 -2.33153 6.68234
1 -9.29823 2.25828 -6.51415
3 1.10096 -11.6628 -0.0172005
1 -6.73884 -6.87303 6.62772
2 -2.56563 -9.49051 -6.68587
2 6.76628 -7.12487 6.50091
2 2.79204 -9.44832 -6.62123
2 2.60282 3.00312 11.01
1 -1.41514 -3.95764 10.9937
2 -3.95506 0.875255 10.9113
1 4.02311 -0.864718 -11.152
2 -4.07265 -0.817935 -11.0285
2 -1.40825 4.02569 -11.04
1 7.98731 9.42124 0.0542166
2 8.01748 -3.19649 8.91081
3 8.13978 3.13344 -8.82587
2 -4.03394 11.8779 -0.104073
1 1.20292 8.80167 8.62092
2 6.85275 5.40491 -8.96125
2 -12.1392 2.37683 0.189636
2 -1.59973 8.5825 8.85167
3 -6.85492 5.43502 -8.90566
3 -8.04688 -9.46634 0.153632
1 -7.95455 -2.9449 9.00191
2 -8.03184 3.21652 -8.81535
3 4.09105 -11.5731 0.151144
2 -6.76917 -5.70358 8.88889
3 -1.52747 -8.55948 -8.84818
1 12.2859 -2.50561 -0.0902156
2 6.71484 -5.62747 8.83118
1 1.2756 -8.4963 -8.7197
2 1.13558 5.25721 10.9042
2 -3.91669 -4.07038 11.0103
2 -5.3117 -1.56785 10.9823
1 5.28408 1.47846 -11.3291
2 -5.54481 1.41901 -10.9948
1 -4.03749 3.82817 -11.2491
1 10.7522 3.16434 -2.08425
3 2.56335 10.8705 2.04719
1 -7.95682 7.90237 -2.21624
2 -10.8446 -3.12256 2.29244
1 -2.74291 -11.0286 -2.12243
2 7.92157 -7.72779 2.29101
3 2.49753 -1.51897 10.9577
2 -0.0870708 -3.15649 -10.8139
1 9.3855 3.99373 -4.54971
2 1.34635 10.2824 4.37867
1 -8.0866 6.26547 -4.50487
2 -9.42469 -3.9039 4.48066
2 -1.25837 -10.3052 -4.29333
2 8.16996 -6.37612 4.51296
3 -0.0974501 -1.55487 11.1147
1 -1.29742 -0.608755 -11.1596
2 8.00086 4.56918 -6.71568
2 0.121349 9.28404 6.45742
2 -7.95295 4.76914 -6.60468
1 -7.85396 -4.48258 6.81296
3 -0.0772466 -9.56834 -6.61632
3 8.07441 -4.72211 6.758
2 -2.62884 -1.51965 10.9572
2 -2.72944 1.59865 -10.9925
3 10.7798 1.41412 2.14703
2 -6.70004 8.6349 2.12991
2 -10.7331 -1.62631 -2.12798
2 -3.85551 -10.3428 2.20723
1 6.73675 -8.74902 -2.16084
2 9.38723 0.731562 4.36464
1 4.01647 8.74978 -4.3727
3 -5.46919 7.8352 4.29897
2 -9.33352 -0.823857 -4.41305
1 -4.20875 -8.66481 4.48011
1 5.44552 -8.01596 -4.50902
3 8.0379 0.0579439 6.56729
2 3.97873 6.79744 -6.70695
1 -4.03869 7.19882 6.62392
2 -8.11465 0.0283926 -6.60333
1 -3.851 -7.08158 6.50158
1 4.04738 -7.13089 -6.59529
1 6.96603 -0.882062 9.04316
2 3.94813 5.34314 -8.94992
1 -2.76964 6.3268 8.93865
1 -6.83131 0.974889 -8.80094
2 -4.11533 -5.6444 8.78095
2 2.66099 -6.36107 -8.77901
3 9.50425 5.68056 -2.35481
2 0.0122669 10.9029 2.15473
2 -9.28582 5.37192 -2.23274
2 -9.31077 -5.41127 2.30605
2 -0.118834 -10.9832 -2.09894
1 9.52959 -5.32791 2.02501
3 1.27775 0.699194 11.1368
2 1.30942 -0.832528 -10.9106
2 8.00814 6.18898 -4.48003
2 -1.31902 10.0252 4.32846
3 -9.13777 4.00513 -4.5562
3 -8.22604 -6.21832 4.48192
3 1.51146 -10.2371 -4.37881
2 9.34684 -3.85336 4.43169
2 -1.26041 0.798108 10.8889
2 -0.093239 1.60373 -10.9855
2 9.23652 3.85519 2.09814
2 1.45853 10.1641 -2.39692
2 -8.05975 6.02636 2.19609
2 -9.30471 -3.98195 -2.23874
3 -1.49551 -10.2382 2.29778
2 8.01863 -6.36313 -2.0001
2 8.08289 3.16916 4.30209
3 -6.54731 5.361 4.25672
3 -1.40547 -8.68296 4.41043
2 6.63613 -5.56648 -4.15953
2 6.7567 2.2861 6.64963
2 1.48612 6.77678 -6.57196
2 -5.40765 4.86683 6.6062
2 -6.85487 -2.30224 -6.82992
1 -1.35839 -7.10315 6.43567
2 5.36403 -4.73302 -6.35024
3 5.40686 1.47875 8.86783
2 1.28895 5.29847 -8.858
3 -4.11933 4.04503 8.5671
3 -5.23581 -1.557 -8.77593
2 -1.40961 -5.44889 8.71275
1 4.34312 -3.84982 -8.70671
2 7.86063 7.86452 -2.22722
3 -2.63159 10.8154 2.26222
1 -10.6752 3.17543 -2.3412
3 -8.08272 -7.72805 2.46355
2 2.60966 -10.9904 -1.9954
2 10.9444 -3.08842 2.1805
3 0.0465995 3.03369 10.6602
2 2.60569 1.32177 -10.9864
2 8.02686 6.22709 2.28026
2 -1.27806 10.3534 -2.33013
3 -8.06923 -6.21208 -2.19915
2 1.40436 -9.99904 2.0508
2 9.41915 -3.83645 -1.86598
2 6.59023 5.25202 4.58877
2 -1.0939 8.65652 -4.62626
2 -8.11346 3.34806 4.28815
2 -6.7436 -5.50731 -4.31166
2 1.37326 -8.6043 4.29886
1 8.01432 -3.14216 -4.40098
1 5.29416 4.5943 6.68164
2 -1.25783 6.96547 -6.73791
2 -6.67045 2.51913 6.59395
1 -5.43686 -4.64906 -6.66415
1 1.40014 -6.94017 6.60641
2 6.67277 -2.31491 -6.58433
2 3.98884 3.82175 8.62127
2 -1.43758 5.48315 -8.8512
2 -5.22368 1.59181 8.5824
2 -4.06692 -4.06786 -9.05962
1 1.15356 -5.54007 8.70287
2 5.46088 -1.55943 -8.71417
2 6.53945 8.59261 2.33611
1 -4.053 10.3322 -2.16883
1 -10.6349 1.5561 2.14142
1 -6.79497 -8.61323 -2.21767
3 4.12816 -10.3234 2.18794
1 10.9361 -1.6199 -2.19983
2 5.29538 7.64535 4.52001
3 -3.88269 8.72897 -4.43472
2 -9.32478 0.795367 4.43339
2 -5.43392 -7.72344 -4.23484
3 4.0144 -8.71107 4.32073
1 9.24623 -0.717254 -4.42558
2 3.9052 6.84106 6.4404
2 -3.99166 7.23581 -6.63149
1 -7.73791 0.165891 6.44693
2 -4.11461 -7.00233 -6.92584
3 4.01842 -7.01345 6.65684
3 7.91299 0.0369247 -6.78471
2 2.60903 6.14175 8.65243
1 -4.01739 5.60362 -8.75719
2 -6.62962 -0.635697 8.8066
1 -2.75744 -6.31561 -8.90026
3 3.95495 -5.52707 8.79117
1 6.83926 0.807754 -9.05361
2 16.36 -0.150965 -0.0448278
2 8.1657 14.0863 -0.167078
2 -8.28803 13.9795 -0.205339
2 -16.1991 0.0420911 -0.0219309
2 -8.21046 -14.2008 0.1606
3 7.94946 -13.8217 -0.0804701
1 7.92613 -4.86006 13.1994
2 -0.336899 9.42889 12.9823
2 -8.0866 -4.66866 13.4792
1 0.0626594 -9.43142 -13.3942
3 8.18075 4.56648 -13.2798
3 -8.27344 4.5901 -13.1016
1 14.9996 2.11593 0.094476
1 14.8566 -0.903978 2.04638
2 14.8335 0.808896 -2.34563
3 5.16557 14.0638 -0.0249623
2 6.57026 13.2583 2.08314
2 8.04812 12.472 -2.1167
1 -9.30109 11.7996 -0.140323
1 -6.83434 13.3599 1.92734
3 -14.6785 -2.37198 0.0653853
2 -14.7695 -0.790868 2.37531
2 -14.5288 0.904711 -2.27009
1 -5.49122 -14.2411 -0.0699741
1 -8.04114 -12.691 2.37799
3 -6.89025 -13.2375 -1.97666
3 9.44078 -11.6247 -0.0776495
3 6.58764 -13.1947 -2.00788
2 6.72025 -2.35925 13.3307
1 5.07398 -4.70611 13.1797
2 -1.59671 6.83011 13.2652
3 1.27513 -7.11096 -13.3091
3 -1.36987 -6.99175 -13.2496
2 5.54304 4.64991 -13.3782
1 13.512 -1.73585 4.38337
2 13.3325 1.35419 -4.40745
3 2.41853 14.0581 -0.172387
2 5.25901 12.3613 4.31375
1 8.15586 10.9893 -4.48126
2 -10.6119 9.44875 -0.13705
1 -5.46885 12.6242 4.25754
1 -8.08353 11.2496 -4.18762
2 -13.2379 -4.74242 -0.0552055
1 -13.5116 -1.50316 5.0286
3 -13.1889 1.59326 -4.27708
2 -2.73337 -14.1335 0.0961674
3 -8.13419 -10.9732 4.52819
2 -5.55878 -12.3866 -4.37341
3 10.6527 -9.37567 0.14829
3 5.30891 -12.4367 -4.54961
3 5.28844 -0.0511965 13.1987
3 2.42115 -4.52463 13.1648
1 -2.81612 4.74378 13.2801
2 2.7359 -4.90299 -13.1105
2 -2.85349 -4.68096 -13.1533
3 2.74121 4.81612 -13.4489
2 11.9473 6.94519 -0.15456
3 12.1086 -2.46842 6.62771
2 12.1801 2.22125 -6.5539
2 -0.112912 14.261 0.0143275
1 3.74471 11.6825 6.54512
2 8.20609 9.20339 -6.59269
2 -11.9606 7.1227 0.0508085
1 -4.16978 11.6659 6.42233
2 -8.04347 9.38368 -6.67578
2 -11.9736 -6.92056 0.00364817
2 -12.0362 -2.36759 6.86913
1 -12.0359 2.32666 -6.58314
2 -0.0521934 -14.0592 0.157542
2 -8.09816 -9.3484 6.55461
1 -3.9538 -11.5826 -6.42718
3 12.1458 -7.19552 -0.0430361
2 8.19624 -9.36443 6.52931
3 4.14395 -11.751 -6.75569
1 3.78064 2.31523 13.1771
3 -5.56308e-05 -4.68737 13.0088
2 -3.99391 2.23249 13.1349
1 3.79221 -2.32855 -13.5261
1 -4.21526 -2.4319 -13.1123
2 -0.0142071 4.68793 -13.3466
1 10.6428 9.24527 0.0329106
2 11.004 -3.18577 8.7855
2 10.698 3.27099 -8.76406
2 -2.72279 14.2714 -0.144005
2 2.59397 11.0004 8.63714
3 8.11613 7.75767 -8.94161
2 -13.4984 4.70429 0.0856719
3 -2.80411 10.9909 8.8395
1 -8.29402 7.74686 -8.82032
2 -10.8572 -9.3562 0.025143
2 -10.8174 -3.05941 9.0361
3 -10.6923 3.05923 -8.81435
2 2.65961 -13.9347 0.0406582
1 -8.10803 -7.8365 8.91412
3 -2.58791 -10.9785 -8.88213
2 13.6256 -4.79127 -0.0279692
1 8.09199 -7.88531 8.76403
3 2.55206 -10.8926 -8.72911
3 2.62093 4.80604 13.0633
1 -2.63054 -4.65971 13.1704
2 -5.41964 0.035074 13.1882
1 5.46218 -0.21248 -13.3093
2 -5.65151 0.0065216 -13.4171
3 -2.55623 4.61739 -13.4267
2 9.60893 -3.9988 11.0971
3 9.49104 3.76941 -11.0727
2 -5.40419 14.1481 0.0794825
2 1.03558 10.1489 10.8687
2 8.31545 5.99814 -10.8915
2 -14.6803 2.51044 0.0479955
3 -1.54993 10.3196 10.7966
2 -8.06867 6.29021 -10.9806
3 -9.35902 -11.7687 0.167629
2 -9.42854 -3.97243 11.3352
1 -9.44698 3.74873 -11.117
1 5.34457 -14.0415 -0.0537921
2 -7.91136 -6.48095 11.1891
1 -1.3332 -10.0673 -11.0154
2 14.9416 -2.4831 -0.122317
3 8.20598 -6.37369 10.8851
2 1.30639 -10.1476 -11.0022
2 1.14056 6.9765 13.2171
2 -5.43946 -4.87255 13.3096
2 -6.72866 -2.32675 13.2039
1 6.88509 2.13412 -13.2409
1 -6.64733 2.36767 -13.2879
2 -5.20701 4.59582 -13.2622
1 13.647 3.0794 -2.06189
2 3.81977 13.2885 2.03523
2 -9.3327 10.3902 -2.29651
2 -13.4041 -2.99439 2.143
2 -4.26996 -13.4749 -2.16047
2 9.38957 -10.1147 2.14868
3 4.11926 -2.33476 13.3855
2 0.0111286 -4.67472 -13.4521
2 12.1717 3.8429 -4.36035
2 2.31176 12.5209 4.16029
2 -9.34416 8.69263 -4.43599
2 -12.1068 -3.68681 4.5696
2 -2.56388 -12.5309 -4.43087
2 9.57288 -8.61423 4.28449
3 1.28461 -2.33853 13.1177
3 -1.39874 -2.43905 -13.0301
1 11.2846 4.90789 -6.63737
2 1.27425 11.8814 6.56741
2 -9.36584 7.01136 -6.54358
1 -10.8095 -4.52232 6.71685
1 -1.32332 -11.718 -6.61744
2 9.52086 -7.10609 6.62336
3 -1.27434 -2.3236 13.1295
2 -2.83003 -0.146138 -13.3273
1 9.45528 5.53008 -8.42146
3 -0.275152 10.9404 8.67358
2 -9.47907 5.2958 -8.98262
2 -9.34368 -5.37506 9.09423
2 0.00366362 -10.7302 -8.86842
2 9.48249 -5.52015 8.88145
2 -4.05295 -2.29717 13.2785
1 -4.02402 2.36174 -13.3638
3 13.4225 1.33496 2.15877
1 5.26691 12.4062 -2.21288
1 -8.01203 10.9781 2.23873
1 -13.4076 -1.48161 -2.00159
2 -5.40176 -12.5603 2.37941
1 8.06964 -11.077 -2.09494
1 12.1323 0.606529 4.4263
3 5.43899 11.0042 -4.54157
1 -6.74175 10.0554 4.4058
2 -12.1681 -0.67197 -4.28258
1 -5.44773 -11.1029 4.64206
2 6.88982 -10.314 -4.30719
2 10.6251 -0.139322 6.45603
2 5.31548 9.51944 -6.65725
2 -5.40171 9.53715 6.59095
2 -10.794 -0.20325 -6.49309
3 -5.40457 -9.32682 6.83387
1 5.51344 -9.50104 -6.73777
2 9.54574 -0.973223 8.93831
1 5.31936 7.66398 -8.79211
3 -4.24164 8.8907 8.75852
3 -9.5106 0.642652 -8.74304
2 -5.35625 -7.95274 9.05179
3 3.99619 -8.53416 -8.77737
2 8.1029 -1.72777 11.1946
2 5.47543 6.3376 -11.1102
2 -3.06595 7.97135 10.794
2 -8.12804 1.54018 -10.9529
3 -5.31659 -6.27265 11.0969
1 2.63542 -7.88059 -11.1274
2 12.1556 5.13662 -1.91821
2 1.115 13.4644 2.01529
2 -10.5736 7.72805 -2.26826
2 -12.121 -5.32631 2.42183
2 -1.36149 -13.2552 -2.12349
1 10.724 -7.61053 2.27058
2 2.66476 -0.212002 13.1571
3 1.25453 -2.56437 -13.0135
1 10.8591 6.33214 -4.43101
2 -0.374513 12.5853 4.16454
1 -10.9063 6.18377 -4.28657
1 -10.7566 -6.27548 4.55983
3 -0.00576419 -12.5104 -4.19994
2 10.7676 -6.14861 4.43168
2 -0.0395961 -0.124265 13.1326
2 -1.44366 11.7805 6.40822
2 -10.6747 4.5705 -6.58887
1 -9.38416 -6.80365 6.72373
2 1.44668 -11.6476 -6.5203
2 10.6914 -4.72491 6.68533
2 -2.51806 -0.0898295 13.1901
2 -1.53569 2.183 -13.1614
2 12.1112 3.86863 2.15508
3 2.53389 12.6164 -2.32191
2 -9.50561 8.37405 2.2081
3 -11.905 -3.85345 -2.14187
3 -2.68192 -12.6712 2.28859
2 9.35006 -8.63754 -1.86488
2 10.6991 2.92465 4.31889
1 2.80828 11.0146 -4.36208
3 -8.16534 7.69992 4.37273
3 -10.8546 -3.2132 -4.47682
2 -2.72505 -10.862 4.3687
3 8.06612 -7.59989 -4.29152
3 9.32184 2.10576 6.61212
2 2.70721 9.30013 -6.56717
1 -6.79671 7.122 6.3911
2 -9.41867 -2.30263 -6.55897
3 -2.67088 -9.44602 6.55896
1 6.74669 -7.01571 -6.51074
2 8.08652 1.45121 8.8211
3 2.43466 7.72005 -8.85697
1 -5.44045 6.3119 8.81197
1 -8.13299 -1.56023 -8.90469
1 -2.76688 -7.98478 8.71054
1 5.33388 -6.25799 -8.97289
2 6.53535 0.875665 11.0274
2 2.84253 6.18869 -11.0312
3 -3.99242 5.53617 11.073
3 -6.87825 -0.794982 -11.1194
2 -2.65897 -6.19582 11.2412
2 4.0714 -5.55072 -11.0177
1 10.5778 7.9118 -2.2592
2 -12.2388 5.56495 -2.16851
2 -10.6186 -7.55931 2.36013
2 1.26422 -13.4583 -2.2414
2 12.1798 -5.48417 2.08314
2 1.26911 2.16145 13.2496
2 2.56272 -0.177267 -13.1846
2 9.38204 8.65746 -4.3984
2 -2.96961 12.3228 4.30046
3 -12.127 3.90574 -4.35607
3 -9.2994 -8.38821 4.61427
2 12.1558 -3.96596 4.38861
3 -1.30811 2.18879 13.0731
3 1.29644 2.16475 -13.3242
2 10.7234 6.14033 2.22324
3 0.00949446 12.5601 -2.3194
3 -10.6851 6.22398 2.23199
2 -10.9805 -6.21371 -2.20273
2 -0.0944429 -12.4282 2.1612
2 10.8976 -6.39531 -2.23358
1 9.22152 5.45749 4.5217
2 0.14206 10.8991 -4.45337
3 -9.35777 5.60716 4.349
2 -9.51681 -5.53976 -4.30495
2 0.098054 -10.8147 4.29698
3 9.38515 -5.56787 -4.08638
1 -8.04236 4.75978 6.44261
2 -8.27112 -4.8362 -6.6556
2 0.0154632 -9.29832 6.58645
2 8.05296 -4.76216 -6.20571
2 6.7194 3.89116 8.87688
2 -0.022249 7.82847 -8.73761
1 -6.76958 4.06336 8.81844
2 -6.88584 -3.9419 -8.9084
2 -0.0498406 -7.91159 8.9471
2 5.11697 2.99566 10.9809
2 0.189456 6.28583 -11.1626
2 -5.44844 3.31386 10.7883
2 -5.49789 -3.06413 -11.0549
3 -0.0621247 -6.28947 10.9131
2 5.28512 -3.21131 -10.9457
1 -3.83719 13.2704 2.06203
2 -13.3517 3.13291 -2.12191
2 -9.40914 -9.99186 2.38504
3 3.88452 -13.3179 -2.12929
3 13.5893 -3.26358 2.20183
2 -0.0353375 4.49328 13.1016
1 3.95928 2.32818 -13.3934
3 9.34984 8.58934 2.21704
3 -2.64239 12.5826 -2.32102
3 -12.1329 4.00173 2.19009
3 -9.51972 -8.50878 -2.14631
1 12.1104 -3.98578 -2.2503
3 8.0172 7.82013 4.34384
1 -2.72869 11.0138 -4.51774
2 -10.6718 3.23059 4.22094
3 -8.03995 -7.77544 -4.33635
2 2.77278 -10.9713 4.38494
1 10.8016 -3.23396 -4.32563
2 6.80017 6.92687 6.71306
2 -2.68623 9.45462 -6.8034
1 -9.30826 2.38161 6.56641
3 -6.85875 -6.87287 -6.42052
3 2.63722 -9.27059 6.60227
1 9.26913 -2.36292 -6.7125
2 5.43188 6.33803 8.89611
3 -2.54666 7.89255 -8.82144
1 -7.77374 1.5615 8.76822
3 -5.75569 -6.28435 -8.79794
2 2.68654 -7.84721 8.77809
3 8.12086 -1.65452 -8.94698
3 3.90909 5.25587 10.7801
2 -2.58124 6.33735 -11.2625
2 -6.70453 0.971719 10.937
2 2.58242 -6.25557 10.9114
2 6.61315 -0.915019 -11.1204
2 7.98794 10.8166 2.14216
1 -5.46099 12.5141 -2.34067
3 -13.4088 1.57477 2.34007
2 5.4247 -12.4279 2.27814
3 6.6591 10.0616 4.27263
3 -5.442 10.9158 -4.35358
1 -12.1934 0.818646 4.42113
2 -6.70794 -10.0704 -4.27475
3 5.38714 -10.8873 4.31758
1 12.0641 -0.820442 -4.37682
1 5.34186 9.37812 6.45044
2 -5.33187 9.58961 -6.79343
2 -10.8699 0.0545703 6.47174
2 -5.36744 -9.3465 -6.63191
2 5.44255 -9.31636 6.61238
1 10.7977 0.0499256 -6.73789
2 3.80035 8.55442 8.79044
2 -5.26226 7.87796 -8.98096
2 -9.39067 -0.78555 8.85785
1 -4.11709 -8.79591 -8.8328
3 5.37838 -7.82987 8.67013
2 9.20995 0.697983 -9.03025
2 2.45423 7.64141 11.0336
2 -5.412 6.21477 -10.9798
2 -8.14502 -1.51766 11.1991
3 -2.758 -7.83817 -11.0042
2 5.36207 -6.25136 10.7672
3 19.0105 -0.0305756 0.14724
3 9.42321 16.4309 -0.158881
3 -9.21436 16.3738 -0.0735863
3 -18.722 0.0491803 0.126939
1 -9.72256 -16.5333 0.225397
2 9.35629 -16.1279 -0.186106
1 9.41015 -5.66088 15.5837
2 -0.0152272 11.1502 15.3943
2 -9.32441 -5.26847 15.6469
3 0.0932215 -10.8887 -15.5782
3 9.4995 5.41914 -15.394
3 -9.41648 5.66964 -15.3645
3 17.5068 2.2115 -0.127748
1 17.5793 -0.787337 2.31848
2 17.4578 0.82651 -2.19838
2 6.561 16.2031 -0.240839
2 7.89683 15.6216 2.07652
1 9.28689 14.9728 -2.49231
3 -10.6957 14.1797 -0.147218
2 -7.8691 15.7009 2.13359
3 -9.32215 14.8133 -2.4473
1 -17.3044 -2.25797 0.180564
3 -17.3596 -0.780579 2.44297
2 -17.3803 0.908872 -2.1189
2 -6.87882 -16.6647 0.0386032
3 -9.52126 -15.0195 2.44686
2 -8.10935 -15.6402 -2.04616
1 10.607 -13.7822 0.0984252
2 9.22234 -14.6898 2.1514
2 8.05543 -15.3888 -2.19309
2 8.00107 -3.42887 15.7358
1 5.18277 -3.12891 15.5814
1 -1.37964 8.51309 15.2264
3 1.45222 -8.50592 -15.4768
3 -1.3495 -8.64341 -15.5484
2 6.80212 5.31707 -15.5284
2 15.6992 4.57564 0.193761
1 16.207 -1.81994 4.43288
2 16.0385 1.36401 -4.66276
1 3.7931 16.4638 -0.142945
3 6.60204 14.7909 4.27146
1 9.62376 13.2721 -4.69418
2 -6.55855 14.955 4.3983
3 -9.5958 13.3069 -4.46246
2 -16.3461 -1.60816 4.81891
3 -15.9195 1.76404 -4.21799
2 -4.26946 -16.438 -0.171671
2 -9.40498 -13.5141 4.60955
2 -6.91267 -14.5981 -4.3141
3 12.1467 -11.5297 0.0524251
1 9.35984 -13.3036 4.29627
1 6.67539 -0.963207 15.5239
2 3.63567 -5.54592 15.2007
1 -2.62483 6.26577 15.6465
2 2.72167 -6.34952 -15.4573
2 -2.64771 -6.22041 -15.4339
1 4.19409 5.59121 -15.5562
3 14.6563 6.90111 0.0440991
1 14.8464 -2.50936 6.67154
3 14.8898 2.41609 -6.73633
1 1.18397 16.6056 -0.163172
2 5.14274 14.0381 6.33833
3 9.61691 11.5853 -6.816
2 -13.451 9.4745 0.277622
1 -5.49258 14.1178 6.58429
1 -9.56368 11.6475 -6.51478
3 -14.6736 -6.99962 0.178067
2 -14.6665 -2.28937 6.90202
2 -14.5671 2.36205 -6.54452
2 -1.40998 -16.4869 0.101955
1 -9.31987 -11.7158 6.88472
2 -5.18716 -13.871 -6.60722
2 13.3362 -9.28067 -0.0316109
3 9.25884 -11.763 6.42923
2 5.30411 -14.0709 -6.37142
1 5.41715 1.50648 15.4483
1 -3.85789 3.97095 15.5359
1 3.96624 -3.88663 -15.6058
2 -4.25512 -4.15029 -15.5341
3 1.5551 5.46304 -15.6004
2 13.3556 9.28562 -0.0471335
1 13.5379 -3.49138 8.84287
2 13.5227 3.32703 -8.66795
2 -1.39483 16.5278 -0.118762
3 3.96535 13.4145 8.66992
2 9.42868 9.97315 -8.95585
1 -14.4917 7.1437 -0.01036
3 -3.98621 13.3008 8.73865
2 -9.5744 10.0964 -8.69134
3 -13.3958 -9.17825 0.27933
1 -13.4421 -3.12466 9.15448
1 -13.4154 2.96346 -8.82343
3 1.34345 -16.1783 0.0930886
2 -9.298 -10.1478 9.07595
2 -3.98933 -13.0701 -8.85637
3 14.8099 -7.0941 0.0207558
1 9.54327 -10.3341 8.62555
2 4.13436 -13.2321 -8.74843
3 4.08618 3.67912 15.4542
1 -1.23431 -5.34883 15.281
2 -5.35546 1.75835 15.364
1 5.38249 -1.57657 -15.6081
2 -5.4183 -1.57528 -15.6517
3 -1.24303 5.48289 -15.5311
1 11.8944 11.6305 -0.0715517
2 12.1133 -4.10265 11.0597
2 12.0838 3.94247 -11.0783
3 -3.92195 16.4137 -0.0739606
3 2.61159 12.3516 10.7981
3 9.34978 8.31401 -11.1204
1 -16.0703 4.83601 -0.225631
3 -2.86851 12.6192 10.8754
2 -9.42274 8.74957 -11.182
3 -11.9896 -11.7996 0.15681
3 -12.0285 -3.72458 11.2544
2 -12.1388 3.71121 -11.0256
3 4.07532 -16.2566 0.0181459
3 -9.6256 -8.58951 11.4431
2 -2.41529 -12.4416 -11.0463
3 16.1473 -4.78499 -0.132021
3 9.53349 -8.65607 10.9869
2 2.83154 -12.3477 -10.9822
2 2.28852 6.57928 15.5281
2 -4.15358 -5.45847 15.444
2 -6.70189 -0.820125 15.3211
3 -6.99486 0.830151 -15.491
3 -3.89806 5.35628 -15.5279
1 10.7479 14.0486 -0.212899
3 10.7395 4.38258 -13.2826
1 -6.50684 16.3939 0.063636
3 1.28163 11.7077 13.049
3 9.26832 6.99257 -13.4782
3 -17.3313 2.55684 0.098458
2 -1.34966 11.876 13.0518
1 -9.31703 7.06294 -13.2194
3 -10.7807 -14.0709 0.182759
3 -10.7385 -4.60696 13.5408
1 -10.9354 4.61475 -13.272
3 6.64121 -16.293 -0.0933666
2 -9.32839 -6.92889 13.4324
3 -1.29756 -11.7523 -13.3957
1 17.5633 -2.31239 -0.019932
2 9.45873 -7.29123 13.1413
2 1.48365 -11.5935 -13.4361
2 1.25037 8.94769 15.119
1 -6.86075 -5.55563 15.5001
2 7.98967 2.91607 -15.2922
3 -8.17732 3.26338 -15.3523
2 16.395 3.19573 -2.21484
2 5.25816 15.5457 2.18925
3 -10.8422 12.4937 -2.2659
1 -16.0385 -3.15983 2.3113
3 -5.57259 -15.8522 -2.42471
2 10.7041 -12.3987 2.18778
1 -0.0229894 -6.41404 -15.523
2 14.9807 3.90836 -4.59163
2 3.74879 14.6941 4.13824
1 -10.7172 10.9547 -4.31198
3 -14.7867 -3.55935 4.65334
1 -4.2137 -14.858 -4.44899
3 10.6468 -10.9381 4.21606
3 2.6153 -3.10878 15.4438
1 -1.25656 -4.01874 -15.4017
3 2.53027 13.9854 6.25865
3 -10.8161 9.31197 -6.38536
3 -2.69149 -13.9538 -6.66992
3 10.6914 -9.30647 6.35922
2 -0.0362452 -3.11944 15.3096
1 -2.76879 -1.67746 -15.2284
2 12.1547 5.62657 -8.78149
1 1.28957 13.2243 8.7192
1 -10.8385 7.8052 -8.7783
1 -12.0171 -5.39867 9.07861
2 -1.20874 -13.1324 -8.6848
2 10.7987 -8.05968 8.72571
3 -2.62752 -3.20763 15.2613
3 -4.14263 0.652411 -15.4497
3 -0.184232 12.4648 10.8594
2 -10.9648 6.25527 -11.0595
2 -10.7382 -6.30499 11.3956
1 0.0226458 -12.3824 -11.0775
2 10.74 -6.32693 11.0453
3 -5.55318 -3.23782 15.2548
3 -5.25662 3.098 -15.4809
3 16.1947 1.35946 2.31361
3 6.68191 14.7228 -2.26111
3 -9.25476 13.2637 2.1086
1 -16.0612 -1.48634 -2.19649
3 -6.5807 -14.95 2.16819
3 9.27679 -13.1971 -2.11292
2 14.7578 0.687089 4.29062
2 6.79878 13.3203 -4.40395
2 -8.13262 12.5207 4.42515
1 -14.7052 -0.614962 -4.27882
2 -6.73995 -13.2871 4.46332
1 7.83856 -12.6275 -4.23984
2 13.4632 -0.212678 6.59055
2 6.84558 11.7269 -6.51884
2 -6.76557 11.7231 6.62463
3 -13.5182 -0.0369703 -6.45488
2 -6.72938 -11.6873 6.71757
2 6.66659 -11.7569 -6.58349
1 12.1665 -0.844977 8.73692
2 6.79093 10.1977 -8.7464