3598
 Atoms. Timestep: 6000
2 0.0726905 -0.213365 0.0276164
3 2.72773 -0.105466 -0.0398453
2 1.3596 2.199 0.00138101
2 -1.31378 2.11463 0.0820222
1 -2.54178 -0.163644 0.224693
3 -1.33972 -2.34922 0.351024
2 1.39057 -2.47188 0.130538
2 1.48638 -0.819888 2.26739
2 -1.38395 -0.877126 2.51102
1 1.42059 0.626326 -2.15941
3 -1.19735 0.50676 -2.0221
1 5.34067 -0.0578588 0.0483346
1 2.53698 4.65374 -0.025138
3 -2.71931 4.31598 0.126195
2 -2.74143 -4.7639 -0.153062
3 2.922 -4.93539 0.164034
2 2.69044 -1.43662 4.70855
2 0.161067 3.00987 4.57761
2 0.195157 -3.08055 -4.19788
3 2.68551 1.48367 -4.30188
3 -2.63011 1.29388 -4.50412
1 4.00178 2.19966 0.0439222
2 3.99511 -0.702819 2.60917
3 4.0739 0.857513 -2.06642
1 -0.246493 4.57817 0.0072699
1 1.38533 3.64842 2.37312
2 2.48781 3.01627 -2.07815
1 -3.9573 2.04054 -0.0303718
2 -1.26398 3.68913 2.27779
1 -2.58037 2.78004 -2.21351
1 -3.8939 -2.37429 0.22643
1 -4.06008 -0.755557 2.25784
1 -3.87301 0.340009 -2.16154
3 0.155144 -4.74145 0.256599
2 -2.5796 -3.26929 2.23756
2 -1.16548 -3.85192 -1.99114
3 3.99768 -2.37098 0.227191
2 2.76888 -3.29964 2.34999
2 1.39126 -4.09613 -1.99184
2 0.159283 -1.71282 4.57773
1 -0.0429129 1.20004 2.7488
2 1.36085 -0.60543 -4.42689
1 -1.14402 -0.985637 -3.94889
3 2.75283 1.49265 2.12887
3 -0.0868904 2.96312 -2.01842
1 -2.68094 1.4995 2.38016
3 -2.59196 -1.80045 -1.9718
2 -0.021058 -3.25179 2.32058
2 8.08903 -0.047504 0.173152
1 -4.0077 6.65507 0.143902
1 -7.89982 -0.0199503 0.070351
1 -4.02009 -6.99639 0.0222203
3 3.97768 -7.17957 -0.0522843
2 -0.0675191 4.771 6.5959
2 -4.165 -2.05001 6.56664
3 0.160352 -4.53704 -6.42994
3 -3.98616 2.1699 -6.56501
1 6.79339 -0.619404 2.27872
3 6.8552 0.479152 -2.02532
3 1.18603 6.87251 0.0631132
1 2.73025 6.12927 2.3083
3 4.14194 5.01608 -2.12653
1 -5.42809 4.31167 -0.0568781
3 -2.70022 6.31163 2.44652
1 -4.08971 5.07282 -2.17436
3 -6.58004 -2.21619 0.165213
1 -6.77591 -0.784614 2.2118
1 -6.55198 0.56097 -2.03222
1 -1.22182 -6.89727 0.00835773
3 -3.92998 -5.58019 2.38332
1 -2.67011 -6.19545 -2.1203
2 5.4935 -4.67778 0.0209171
2 4.04504 -5.72088 2.16278
3 2.73214 -6.24385 -2.28839
2 -1.14301 2.34353 6.57244
3 1.16544 -2.10936 -6.52251
2 -1.47376 -2.2423 -6.44559
3 1.07258 2.09122 -6.02731
1 5.35893 4.6577 0.0596453
2 5.49053 -1.43386 4.5
3 5.60606 1.47176 -4.0175
2 -1.31376 6.91701 0.101655
3 1.34278 5.2875 4.5151
1 4.11989 3.62174 -4.10181
2 -6.58274 2.18853 -0.0616728
2 -1.24616 5.39056 4.4417
2 -3.73744 3.69628 -4.35522
3 -5.2614 -4.64867 0.162085
2 -5.50684 -1.31927 4.35748
1 -5.23077 1.41882 -4.28712
2 1.43242 -7.04831 -0.192969
2 -4.04125 -3.81457 4.38577
1 -1.34502 -5.33582 -4.44449
1 6.60651 -2.34328 0.15213
2 3.94917 -3.80493 4.74964
1 1.33809 -5.57554 -4.41709
1 1.54772 1.86304 6.24856
1 -1.27339 -2.33537 6.65333
2 -2.65777 0.0232162 6.58682
2 1.78536 0.0738325 -7.70089
2 -2.9388 -0.13403 -7.02042
1 5.74783 2.9088 -1.84334
2 0.0718678 6.06097 2.29456
2 -5.28541 -3.10011 2.24471
2 5.32858 -3.16644 2.37696
2 0.0722829 -0.149667 6.6497
2 -0.477837 0.0773746 -6.13424
1 5.48135 1.64658 2.25651
3 1.32423 5.39549 -2.15375
2 -4.17027 4.07909 2.11621
1 -5.32468 -1.74109 -2.22701
1 -1.44236 -5.51965 2.33258
1 4.05571 -3.89902 -2.04364
1 3.81212 0.82097 4.53028
2 1.38395 3.71621 -4.23926
2 -2.85256 3.29743 4.37634
2 -1.36242 -3.82416 4.52373
1 2.78865 -3.08047 -4.30248
3 4.01438 3.79728 2.05398
2 -1.19891 5.3279 -2.31769
3 -5.33887 1.6567 2.1739
2 -4.1003 -3.85692 -2.10995
1 1.43194 -5.58766 2.32086
2 5.11386 -1.58067 -1.94892
1 -1.24614 3.29701 -4.48675
1 -4.13259 0.764682 4.49074
2 -2.80829 -3.01702 -4.31555
2 1.33821 -3.95907 4.39889
1 4.02303 -0.743504 -4.32239
2 10.8909 -0.0210076 -0.142812
3 5.39056 9.09406 -0.144575
1 -5.81212 9.70776 -0.00546818
2 -10.5076 -0.0935863 -0.124527
1 -5.33322 -9.38635 0.140509
1 5.15756 -9.57426 0.116219
1 5.45815 -3.03419 8.90984
2 0.0911731 6.25417 8.72279
2 -5.4934 -2.92945 8.93292
2 0.123035 -6.16078 -8.67076
3 5.38506 3.00446 -8.51661
3 9.51406 2.17084 -0.0453016
2 9.47574 -0.661666 2.38104
2 9.41504 0.73398 -2.06514
1 2.58298 9.11786 -0.124993
1 4.18852 8.33921 2.04409
2 5.07665 7.43768 -1.95925
2 -6.79132 6.88798 0.0400542
1 -4.08839 8.52324 2.18667
1 -5.43033 7.60801 -1.95365
1 -9.31477 -2.39509 -0.0950204
2 -9.3362 -0.728482 2.05643
1 -9.22003 0.734037 -2.20962
3 -2.67472 -9.18919 0.0960613
2 -5.28019 -7.88285 2.33559
1 6.57049 -7.07384 0.0389061
3 5.27371 -7.95012 2.21432
2 3.87141 -8.72924 -2.15214
2 4.12575 -0.922968 8.85584
3 2.71288 -3.26485 8.99017
2 -1.28839 3.96133 9.06783
2 1.29119 -3.70515 -8.59818
1 -1.36514 -3.84915 -8.53368
2 2.63182 2.57903 -8.12151
1 8.0646 -1.49035 4.4021
3 8.15324 1.40184 -4.23935
2 -0.0935052 9.2259 0.0566785
1 2.65439 7.73327 4.59667
2 5.38421 5.93118 -4.12998
3 -8.12126 4.60957 0.08749
3 -5.24918 6.01159 -4.23459
3 -7.95471 -4.58153 -0.0941621
3 -8.08464 -1.73522 4.37982
3 0.132916 -9.17957 0.085731
2 -5.29223 -5.95332 4.43201
1 -2.66472 -7.69654 -4.35453
2 8.11668 -4.14119 -0.179976
2 5.20156 -6.15476 4.41968
2 2.45338 -7.97318 -4.42405
2 2.52998 1.6106 8.70715
1 -2.62116 1.56234 8.82733
3 0.191507 3.23913 -8.60894
2 6.66318 6.90904 0.0231921
1 6.57663 -2.40388 6.66202
3 6.81781 2.13277 -6.4859
2 -2.82091 9.09211 0.0570234
1 1.2453 7.06942 6.68953
2 5.27902 4.13087 -6.33093
2 -9.26708 2.16375 0.0414601
2 -1.50408 7.01935 6.6588
2 -6.58673 -7.06514 -0.0449193
3 -6.67937 -2.33769 6.78506
1 -6.48979 2.28478 -6.37994
3 2.46207 -9.31345 -0.00371318
3 -5.18048 -4.49198 6.62556
3 -1.32186 -7.00961 -6.59216
3 5.28234 -4.68982 6.75631
1 1.29252 -7.11952 -6.74494
3 1.31363 4.00175 8.74099
2 -2.77233 -3.02996 8.65237
3 -3.99834 -0.680234 8.88099
1 4.2372 0.574071 -8.35182
1 -2.62323 3.05927 -8.64978
3 8.35062 2.95319 -2.23583
2 1.49953 8.41233 2.12689
3 -6.78205 5.28435 -2.10391
2 -7.97542 -3.15379 2.20812
3 -1.29075 -8.55126 -2.08943
1 6.67043 -5.43467 2.37379
1 1.39333 -0.813569 8.88786
3 -0.121152 -1.45051 -8.62636
2 6.71265 3.66802 -4.17019
2 0.119219 7.79464 4.2859
2 -6.67539 -3.76831 4.58593
2 -0.237741 -7.80121 -4.2185
3 6.69506 -3.95809 4.5034
1 -1.32778 -0.89178 8.7387
2 -0.88838 1.01201 -8.67141
3 8.19408 1.47253 2.33572
3 2.50077 7.53507 -2.26657
3 -5.48687 6.37258 2.21595
2 -2.60665 -7.80682 2.16312
1 5.32021 -6.22118 -2.09688
3 6.65275 0.86439 4.43567
2 2.69776 5.96541 -4.32083
2 -4.13436 5.59369 4.32043
3 -6.7186 -0.847216 -4.30616
3 -2.70182 -6.34198 4.28438
2 4.05613 -5.31349 -4.20443
3 5.45686 0.113562 6.56844
1 2.45576 4.39792 -6.4355
2 -2.87678 4.75407 6.66015
3 -5.43627 -0.0427249 -6.53176
2 -2.67416 -4.65725 6.52172
2 2.772 -4.55962 -6.54472
1 6.90574 5.10038 -2.11085
2 -1.36677 8.61159 2.13693
1 -7.93831 2.99167 -2.07287
2 -6.74333 -5.40065 2.1205
2 1.20726 -8.52902 -2.06732
1 7.96381 -3.06722 2.26698
1 0.1145 1.49804 8.76448
2 6.81248 3.93351 2.26775
3 0.0420169 7.59562 -2.03379
2 -6.76825 3.86657 2.09926
3 -6.66633 -3.97495 -2.17656
1 -0.0540814 -7.82777 2.28568
3 6.57576 -3.74803 -2.18445
2 4.86784 3.16206 4.34297
1 -0.0507244 6.03066 -4.32072
3 -5.47422 3.10645 4.29933
3 -5.39679 -3.23586 -4.1944
2 -0.121597 -6.42489 4.50585
1 5.35188 -2.93139 -4.6351
1 4.04272 2.40499 6.65438
2 0.00414828 4.37672 -6.39708
3 -3.86354 2.28861 6.45931
2 -4.05877 -2.41184 -6.54266
2 0.107154 -4.5475 6.65026
1 3.53942 -1.57653 -6.71846
2 5.36139 5.9807 2.10377
1 -2.67185 7.52364 -2.26847
1 -5.36397 -6.2289 -2.13459
2 2.66555 -7.91424 2.17588
2 8.15055 -1.71957 -1.98476
3 4.08242 5.42866 4.45089
3 -2.75516 6.05429 -4.22522
3 -6.85548 0.515389 4.63303
3 -3.98948 -5.23155 -4.3172
2 2.54703 -6.38035 4.40909
2 6.84845 -0.705738 -4.17964
1 2.62133 4.62205 6.61897
3 -2.5454 4.50552 -6.58927
3 -5.247 0.0129331 6.5097
2 -2.65764 -4.70206 -6.5445
1 2.63464 -4.81594 6.85994
1 13.36 0.0226206 0.000312416
1 6.59497 11.3394 -0.0327058
2 -13.3679 -0.190247 -0.144278
2 6.3412 -11.9426 -0.132902
1 8.11329 -1.49673 10.9762
2 -6.74782 -3.75568 11.0087
3 0.0183821 -7.75497 -10.8993
3 6.70779 3.8587 -10.7323
3 -6.71322 3.84451 -10.9102
2 12.1995 2.54407 -0.405035
1 12.2824 -0.872095 2.29787
2 3.95782 11.3929 0.0946325
2 5.41103 10.6431 2.04835
1 6.88836 9.97695 -2.29945
1 -8.44077 9.20447 0.199901
3 -5.28606 10.732 2.30748
2 -6.80717 10.1301 -2.14668
3 -11.9501 -2.36551 -0.259835
1 -12.0056 -0.696577 1.94506
3 -12.0334 0.692427 -2.16042
2 -3.93327 -11.6833 0.0245307
1 -6.77539 -10.289 2.19709
1 -5.3744 -10.846 -2.17382
2 8.00305 -9.32604 -0.0884287
2 6.74598 -10.2239 2.16444
2 5.08561 -11.1687 -2.4365
3 5.24524 -1.43178 11.1609
2 3.98476 -3.76684 11.1172
2 -2.76592 2.98575 11.049
2 1.18703 -5.34211 -10.8603
2 -1.28223 -5.46016 -10.8274
1 4.12666 3.77537 -10.6363
3 10.732 4.57555 -0.121291
2 10.7639 -1.5937 4.41951
3 10.5719 1.62506 -4.3647
3 1.27382 11.4197 0.03582
2 4.02691 10.0615 4.51883
2 6.58741 8.44643 -4.3083
3 -9.45732 7.00329 0.0832493
1 -4.14156 10.1449 4.4992
1 -4.04883 8.21729 -4.4495
3 -10.6606 -4.63874 -0.0479334
2 -10.7537 -1.60409 4.32718
2 -10.462 1.38963 -4.29883
2 -6.72013 -8.35221 4.5711
2 -3.92893 -9.95743 -4.15673
2 9.06593 -6.97482 0.114132
3 6.73438 -8.64679 4.37355
3 4.03953 -10.0203 -4.41592
2 4.1128 0.78716 11.0373
2 1.17179 -3.90971 11.0124
2 2.70714 -3.05735 -10.817
2 1.85844 4.42075 -9.8247
3 9.30341 6.90766 -0.0100737
2 9.43553 -2.42747 6.56237
2 9.37208 2.31909 -6.60292
1 -1.44257 11.3506 -0.175454
3 2.68769 9.28282 6.60252
2 6.4043 6.83147 -6.43073
1 -6.63447 6.85229 -6.31583
2 -9.20323 -6.77813 0.0862417
3 -9.39349 -2.16298 6.62765
2 -9.13218 2.16785 -6.52896
3 1.34861 -11.4599 0.274395
3 -6.65052 -6.83148 6.57604
2 -2.68671 -9.30524 -6.47722
2 10.7522 -4.57527 0.233949
2 6.80751 -7.06783 6.53925
1 2.75392 -9.44841 -6.64883
3 2.44504 3.174 11.0077
3 -1.45094 -3.94809 10.9336
1 -3.84037 0.673091 11.0964
3 4.06535 -0.699323 -10.834
2 -3.9807 -0.616438 -10.7458
2 -1.04248 3.92955 -10.7526
2 7.95658 9.13022 -0.0593231
2 7.97691 -3.20642 8.73206
3 8.01532 3.21852 -8.80551
3 -4.08021 11.5897 0.047199
2 1.14884 8.57597 8.65587
3 6.62115 5.2732 -8.49434
2 -12.038 2.15422 0.0110077
1 -2.63632 9.20537 6.60366
1 -5.32812 3.21236 -8.76589
2 -7.93559 -9.35978 0.112258
1 -8.03171 -3.13468 8.74334
3 -7.87992 3.12785 -8.41345
2 3.76779 -11.789 -0.0939587
3 -6.58787 -5.3583 8.69591
2 -1.27654 -8.46874 -8.70198
3 12.1154 -2.37428 0.129118
1 6.63087 -5.34484 8.88772
2 1.44804 -8.64629 -8.88513
2 1.11849 5.39679 11.0959
1 -4.22203 -3.7379 11.0962
3 -5.56927 -1.37113 11.0915
3 5.26549 1.4264 -10.6333
3 -5.37948 1.56484 -10.8309
2 -3.95326 3.72172 -10.6554
3 10.5917 3.42473 -2.23326
3 2.72046 10.6519 2.21301
2 -8.12645 7.6292 -2.0549
2 -10.7148 -3.16679 2.15396
1 -2.67371 -10.8486 -2.08727
2 7.94894 -7.82775 2.35434
2 2.54355 -1.51111 11.0692
1 -0.00865567 -3.03242 -10.6944
2 1.37213 9.96414 4.49188
2 -7.79384 6.10862 -4.31585
3 -9.26791 -3.60001 4.41036
2 -1.36348 -10.0811 -4.16028
3 8.07001 -6.44074 4.40725
2 -0.121814 -1.62406 11.1679
2 -1.35091 -0.585714 -10.7729
2 8.02782 4.55002 -6.55795
3 0.111699 9.32643 6.49759
1 -8.08916 4.53947 -6.20496
1 -0.0193976 -9.42391 -6.38016
3 7.99947 -4.80475 6.67622
2 -2.74264 -1.65135 10.8787
1 -2.57796 1.61002 -10.9224
1 10.9538 1.54819 2.2081
2 3.99414 9.78641 -2.18601
2 -6.82599 8.48884 2.18842
3 -10.5645 -1.65163 -2.18433
2 -4.14115 -10.349 2.189
1 6.45308 -8.68921 -2.19883
1 9.28489 0.886895 4.35447
2 3.73741 8.31161 -4.43366
1 -5.34415 7.64371 4.46183
2 -9.17155 -1.17823 -4.34195
2 -4.09399 -8.59669 4.50021
2 5.37109 -7.7112 -4.26276
1 8.02964 0.0376817 6.55794
1 3.68483 6.91424 -6.76849
3 -4.11115 7.00995 6.64813
1 -8.05003 -0.525699 -6.52667
2 -4.00771 -6.92879 6.62947
2 4.08381 -7.09364 -6.61915
3 6.69336 -0.760767 8.79245
2 3.8744 5.06329 -8.45791
1 -6.50439 0.780679 -8.64362
3 -4.28026 -5.23266 8.76824
2 2.7725 -6.25526 -8.71635
3 9.41414 5.40894 -2.26466
1 -0.00478886 10.8019 2.34693
2 -9.32762 5.28522 -2.21774
3 -9.42476 -5.27304 2.18323
2 0.0106425 -10.8671 -1.91042
1 9.35592 -5.60269 2.38131
3 1.38075 0.760131 10.9928
1 1.44619 -0.819206 -10.5629
2 8.17529 6.01877 -4.26032
1 -7.7998 1.54826 -4.245
2 -8.15526 -6.05873 4.29359
3 9.48307 -4.04385 4.5282
3 -1.29443 0.653446 10.9174
3 0.0721853 1.51028 -10.9559
1 9.35883 3.81369 2.15602
3 1.20404 9.95715 -2.20701
2 -8.27176 6.20846 2.2477
3 -9.2073 -3.93391 -2.31387
1 8.10343 -6.09565 -2.24374
1 7.84207 3.14888 4.45164
2 -6.74012 5.26183 4.20131
3 -7.66785 -3.17473 -4.37227
2 -1.43272 -8.623 4.7037
3 6.6438 -5.40611 -4.48851
2 6.52024 2.37725 6.57784
1 1.02881 6.68737 -6.6037
1 -5.33254 4.61365 6.41538
2 -6.53846 -2.30856 -6.4817
1 -1.43169 -7.07208 6.75061
2 5.37792 -4.73298 -6.53663
2 5.27441 1.59355 8.76929
3 -3.92059 3.77191 8.90026
1 -5.13749 -1.34878 -8.7141
3 -1.59782 -5.33263 8.78136
2 4.03481 -3.80199 -8.6302
2 7.99102 7.61953 -2.32988
2 -2.63529 10.9804 2.12814
1 -8.0134 -7.71194 2.22376
3 2.52164 -10.8973 -2.0529
1 10.8285 -3.24801 2.58402
3 -0.107059 3.17628 10.9323
1 2.72707 1.43784 -10.4874
1 7.98873 6.08646 2.03771
2 -1.2751 9.91497 -2.25509
2 -9.33539 3.88468 2.22355
2 -8.0116 -6.22237 -2.27445
3 1.37977 -10.0989 2.4268
1 9.63547 -3.95186 -2.24597
2 6.6019 5.36646 4.52541
1 -1.31027 8.33772 -4.32934
2 -8.14629 2.99758 4.47892
3 -6.60065 -5.49989 -4.26697
1 1.3937 -8.67323 4.4928
2 7.92625 -3.18182 -4.5551
2 -1.42306 6.8417 -6.17512
2 -6.79044 2.26888 6.53158
2 1.2972 -7.36951 6.61865
1 5.98395 -0.618128 -6.59173
1 3.77184 3.92606 8.81008
1 -0.922135 5.50557 -8.42162
1 -5.31777 1.585 8.76036
2 -4.16793 -4.03198 -8.63536
2 1.26977 -5.41431 8.86895
2 -4.13979 9.93338 -2.00524
3 -10.7181 1.62321 2.2503
3 -6.68041 -8.50943 -2.08268
2 3.93079 -10.1209 2.26446
3 10.7712 -1.64062 -2.23281
2 5.25225 7.6743 4.52685
2 -9.47506 0.672293 4.55016
3 -5.22812 -7.71538 -4.36587
3 4.10811 -8.4541 4.44829
3 9.36103 -0.780458 -4.16827
3 3.85708 7.01134 6.79375
2 -4.17513 6.89586 -6.51936
3 -7.9521 -0.00141626 6.61804
3 -3.79875 -7.07859 -6.44636
2 4.16791 -7.08533 6.68674
3 -3.74306 5.37834 -8.62033
1 -6.61443 -0.78554 8.80307
3 -2.60565 -6.19142 -8.59224
2 4.10232 -5.53035 8.91781
2 6.74585 0.89793 -8.85255
2 15.8309 -0.0503483 0.271594
1 -8.00565 14.0468 0.147838
1 -16.1531 0.16114 0.134841
1 -8.10017 -13.945 0.00189641
1 7.764 -14.1436 -0.332945
1 7.99152 -4.64458 13.1063
3 0.0788864 7.6707 11.0548
1 -8.17907 -4.68417 13.038
1 -0.0578399 -9.10216 -12.9869
1 7.90869 4.20678 -12.959
3 14.9123 2.29514 0.257528
2 14.812 0.701601 -2.23886
2 5.1929 13.6369 0.206193
3 6.60722 12.91 2.11103
3 8.02593 12.3257 -2.14497
1 -9.20739 11.6721 -0.0501595
2 -6.72209 13.0778 2.22512
2 -14.8062 -2.24451 0.011587
3 -14.8313 -0.687983 2.12593
2 -14.6335 0.819072 -2.24812
1 -5.33518 -13.8342 0.0724037
2 -8.23321 -12.3622 2.18133
1 -6.63532 -13.0421 -2.19213
1 9.23477 -11.6845 -0.1519
2 7.8732 -12.5209 2.20304
2 6.90889 -14.5748 -2.74279
2 6.5237 -2.24332 13.3032
2 5.29608 -4.6704 13.4552
1 -1.48971 5.67011 11.5323
1 1.22682 -6.83348 -13.1225
1 -1.4084 -6.93307 -12.9931
1 5.45923 4.75252 -12.8326
3 13.5597 4.74756 -0.17624
3 13.3122 -1.7852 4.47654
1 13.321 1.4818 -3.97525
1 2.63812 13.6673 0.0809305
1 5.77927 13.4334 4.38852
1 7.97977 10.9203 -4.43024
2 -11.9085 6.54524 0.299867
1 -5.52048 12.4123 4.37838
2 -8.03695 10.8507 -4.2962
2 -13.2453 -4.5225 -0.0212071
2 -13.3029 -1.30709 4.35729
2 -13.2623 1.63962 -4.21397
3 -2.67413 -14.0505 0.0192722
2 -7.9287 -10.7083 4.272
1 -5.30282 -12.4895 -4.34561
3 10.8 -9.2143 -0.0773278
2 8.0262 -10.984 4.28418
2 5.70134 -12.7175 -4.33076
3 5.14811 -0.0400606 13.2799
1 2.55077 -4.59589 13.4575
1 2.5886 -4.51612 -13.1847
3 -2.65763 -4.58479 -12.972
2 2.75466 4.77166 -12.5196
1 12.0685 6.96137 -0.0815813
1 12.0106 -2.45651 6.50994
2 12.046 2.299 -6.51181
3 -0.101787 13.7026 0.0358878
3 3.95075 11.6577 6.62422
2 7.93445 9.34948 -6.4749
2 -3.89395 11.6361 6.63013
1 -8.05151 9.18901 -6.60378
3 -12.0374 -6.97851 -0.0166686
1 -12.0421 -2.31863 6.45753
2 -11.8518 2.13475 -6.42421
2 -0.0836732 -13.8076 0.231685
2 -4.08527 -11.7506 -6.54032
2 8.31114 -9.21218 6.65831
3 4.22867 -11.5355 -6.38764
1 4.04042 2.2902 13.0428
3 -0.0233415 -4.76283 13.2637
1 4.07498 -2.17374 -13.1415
2 -4.14961 -2.20068 -13.0897
2 0.0569232 4.67627 -12.9106
1 10.759 9.22791 0.0388532
3 10.5881 -3.06657 8.77034
2 10.7439 3.04854 -8.73711
2 -2.83466 13.8388 0.0924653
3 2.51595 10.7964 8.59525
2 7.94313 7.58037 -8.48621
1 -13.2046 4.56086 -0.0652505
3 -2.97577 10.8709 8.95979
2 -8.01198 7.65959 -8.67695
2 -10.7064 -9.36702 -0.0698027
3 -10.6589 -2.88446 8.79627
3 -10.6097 2.96721 -8.59835
1 2.63625 -15.4489 -0.782712
1 -8.05082 -7.53897 8.76478
2 -2.74272 -10.8059 -8.73521
2 13.4125 -4.68729 0.103115
1 8.15677 -7.77119 8.8751
3 2.58854 -10.9462 -8.77818
2 2.5761 4.60227 13.1999
1 -2.63268 -5.02195 13.1734
2 -5.33855 -0.0199594 13.2345
2 5.33947 0.328842 -12.9542
3 -5.39265 0.05932 -12.8348
2 -2.49636 4.66125 -12.889
2 9.52335 11.4395 -0.0858316
2 9.47477 -4.16534 11.126
2 9.25961 3.87239 -11.0067
2 -5.52221 13.791 0.112546
3 1.40274 10.1925 10.8753
2 -14.5419 2.34256 0.018716
2 -1.40757 8.45967 8.8823
1 -8.22531 5.89804 -11.0492
1 -9.04196 -11.5433 -0.202284
2 -9.39451 -3.86055 10.7988
3 -9.47014 3.61833 -10.7404
2 4.823 -14.2249 0.213707
3 -8.09379 -6.00013 10.9227
3 -1.33894 -9.982 -10.7894
2 14.6822 -2.39175 0.251864
3 8.04744 -6.32836 11.1028
2 1.39149 -10.219 -10.8188
2 -5.35405 -4.6454 13.217
2 -6.79007 -2.38481 13.1246
2 7.7228 1.54297 -11.4198
1 -6.70997 2.29851 -12.9175
1 -5.50325 4.76503 -13.0881
1 4.07326 12.9102 2.45616
2 -9.28147 10.0382 -1.88079
2 -13.3522 -3.00369 2.18742
2 -4.08931 -13.0089 -2.15594
2 9.36546 -9.92378 2.01891
1 3.85856 -2.33019 13.3453
3 -0.117193 -4.56625 -12.9779
2 12.0648 3.95514 -4.30701
1 2.58018 12.3294 4.46825
2 -9.38775 8.40523 -4.30692
2 -11.8885 -3.93644 4.36462
3 -2.47634 -12.3015 -4.19036
2 1.22705 -2.50674 13.4068
2 -1.41439 -2.25174 -12.8828
2 10.8609 4.70841 -6.66932
3 1.18279 11.5551 6.77421
1 -9.20052 6.87004 -6.57285
2 -10.4023 -4.42761 6.67518
2 -1.30428 -11.7106 -6.34006
2 9.47754 -7.03692 6.48998
1 -1.31869 -2.6624 13.3037
2 -2.62813 0.179326 -13.0933
3 9.4088 5.36003 -8.74877
2 -0.170221 10.6097 8.76793
2 -9.42025 5.1734 -8.68712
3 -9.45602 -5.46087 8.79993
1 -0.0134192 -10.8381 -8.56844
1 9.51791 -5.51185 8.85985
2 -4.0581 -2.30983 13.1557
3 -4.16146 2.55854 -13.1287
2 13.4563 1.57489 2.322
1 5.26148 12.4772 -2.09478
1 -7.976 10.8398 2.27616
2 -13.1071 -1.58847 -2.37765
3 -5.39971 -12.537 2.25525
1 7.71543 -11.2206 -2.16562
1 12.2925 0.782223 4.54956
1 5.22661 10.9101 -4.41566
3 -6.60294 9.83537 4.41341
2 -11.8618 -0.791808 -4.50219
2 6.60628 -10.1104 -4.48416
3 10.7243 -0.0723917 6.64548
1 5.15423 9.20961 -6.55823
1 -5.46897 9.38566 6.73761
3 -10.5066 -0.00307808 -6.46992
3 -5.4584 -9.13401 6.78366
3 5.38944 -9.32459 -6.52241
1 9.46686 -0.740414 8.70839
2 5.19153 7.70364 -8.55706
2 -5.37861 -7.5544 8.8221
1 4.03661 -8.58615 -8.93829
3 5.37778 6.17007 -10.4713
2 -2.62741 6.11724 9.14168
3 -8.09361 1.59568 -10.7025
3 -5.5675 -5.97236 10.9693
2 12.1178 5.42024 -2.13973
2 1.39814 12.9653 2.20891
3 -10.677 7.45419 -2.08894
1 -11.9825 -5.32325 2.06269
2 -1.30229 -13.154 -1.97846
2 2.51083 -0.0910149 13.2394
1 1.13224 -2.33674 -13.2
2 10.7232 6.17084 -4.39556
2 0.00946258 12.3981 4.48787
2 -10.7276 6.18217 -4.24217
2 0.104543 -12.408 -3.91315
2 10.8797 -6.36703 4.40255
3 -0.0459496 -0.192764 13.2337
1 -0.0361729 0.0396691 -13.181
3 9.43615 6.79015 -6.45237
3 -1.45571 11.5389 6.73875
2 -10.7018 4.51573 -6.45423
2 -9.12447 -6.79697 6.54988
2 1.52948 -11.6426 -6.46867
3 10.9996 -4.74358 6.49883
1 -1.3403 2.30671 -13.0373
2 12.2087 3.86592 1.96419
2 2.60439 12.1322 -2.24245
3 -9.43964 8.57851 2.39356
3 -12.0504 -3.90035 -2.24791
2 -2.67015 -12.4515 2.39207
1 9.30511 -8.37579 -2.09897
1 10.7014 3.14552 4.50934
3 2.55663 10.5661 -4.37332
2 -8.04498 7.74248 4.49765
2 -2.89613 -10.8633 4.47382
3 7.91388 -7.80659 -4.29335
3 9.22331 2.41945 6.6113
2 2.36296 9.08241 -6.45283
2 -6.65448 7.033 6.6535
3 -2.82938 -9.23791 6.66829
1 6.55855 -6.94015 -6.50337
1 8.01254 1.57002 8.81141
1 -5.26446 6.17929 8.9026
3 -2.5497 -7.72873 8.92007
2 5.38636 -6.25078 -8.72697
2 6.67497 0.694168 10.9436
2 2.96301 6.89643 -10.16
2 -6.66269 -0.739821 -10.7712
2 -2.84597 -6.17436 10.8356
2 4.01951 -5.44795 -10.9797
2 10.8106 7.73334 -2.05662
1 -1.26921 13.0278 2.15831
1 -11.799 5.15409 -2.05348
2 -10.7797 -7.55485 2.11626
2 1.39393 -13.144 -1.75061
3 12.1864 -5.62448 2.14464
2 1.19193 2.02664 13.213
2 2.58064 0.034559 -12.9552
1 9.31719 8.52314 -4.44472
2 -2.69262 12.2418 4.45487
2 -11.6802 3.69445 -4.04432
2 -9.30822 -8.56796 4.47665
2 2.86 -12.313 -4.11716
1 -1.59675 2.09256 13.2133
2 1.38038 2.44967 -12.9619
2 10.7836 6.10929 2.05407
3 -0.0551234 12.2895 -2.09812
1 -10.7833 6.14356 2.41842
1 -10.7379 -6.17137 -2.27758
2 9.29948 5.5907 4.43276
3 0.0520644 10.6523 -4.27275
3 -9.40498 5.34835 4.59201
2 -9.32564 -5.16647 -4.45919
2 -0.107895 -10.7824 4.41915
3 9.22147 -5.39206 -4.65225
2 7.93946 4.74484 6.60756
3 -0.179401 9.11151 -6.64836
2 -8.01389 4.72218 6.7512
2 -7.92504 -4.84071 -6.53653
2 -0.0970865 -9.50781 6.84158
3 8.07119 -4.81359 -6.6299
1 6.47159 3.81614 8.68091
2 1.09537 8.08554 -8.59413
2 -6.50883 3.97379 8.89246
2 -6.78584 -3.61819 -8.70898
2 0.0824687 -7.76185 8.94208
2 6.6955 -3.82103 -8.76413
3 5.22391 3.30499 11.0029
2 0.264894 6.40495 -10.466
1 -5.4125 3.07982 11.0555
2 -5.34305 -3.00776 -10.7966
1 -0.355587 -6.44881 11.3876
2 5.15108 -2.94142 -10.8034
3 -4.00712 13.2049 2.45089
3 -9.39464 -9.98124 2.24956
2 13.351 -3.17749 2.35469
2 -0.014478 4.59467 13.2313
1 4.00199 2.43879 -12.8192
3 9.38642 8.37181 2.12528
2 -2.78109 12.2982 -2.18569
3 -12.0235 3.90399 2.11569
3 -9.30314 -8.36713 -2.05423
2 2.39384 -12.7493 2.3497
1 12.1253 -3.84466 -1.94962
1 7.85798 7.61544 4.37788
3 -2.68558 10.8213 -4.20338
1 -10.879 3.33473 4.38459
1 -8.07515 -7.92253 -4.35441
2 2.52941 -10.7804 4.88172
1 6.40851 6.89803 6.6913
2 -9.54488 2.47596 6.64688
2 -6.36137 -6.93424 -6.38346
1 9.09257 -2.22164 -6.55372
3 5.34913 6.16591 8.92189
2 -2.53611 7.80703 -8.46418
2 -7.81742 1.52928 8.8433
2 2.60948 -7.80129 8.90913
1 7.79265 -1.62559 -9.00863
1 3.6997 5.53304 10.8331
2 -2.55711 6.10804 -10.6403
2 -7.2815 0.622127 11.3708
2 -3.90716 -5.39197 -10.762
2 2.48736 -6.1335 11.0848
3 6.56865 -0.680803 -10.9297
3 -5.4072 12.3211 -2.02998
2 -13.3128 1.57926 2.23683
2 -8.04197 -10.6343 -2.41999
3 5.10666 -12.4411 2.20351
2 13.4823 -1.42179 -2.15506
2 6.72701 9.85091 4.2754
2 -5.23729 10.7689 -4.29704
3 -11.8884 0.73432 4.20292
1 5.23465 -10.9495 4.4971
2 11.9849 -0.683771 -4.27114
1 5.27956 9.33159 6.64643
1 -5.3513 9.10894 -6.5904
3 -10.7615 0.20999 6.72791
2 -5.35911 -9.38268 -6.39838
1 5.40793 -9.35031 6.61714
2 10.5144 0.0471177 -6.30142
2 4.00611 8.68492 8.93105
3 -9.25622 -0.691943 8.75285
2 -4.02094 -8.48486 -8.63923
3 5.38415 -7.67857 8.79255
1 9.22992 0.653597 -8.63292
2 2.58409 7.88214 11.2981
2 -5.5172 6.15101 -10.8392
2 -8.37 -1.58046 11.0118
3 -2.41523 -7.70996 -10.7632
2 5.24603 -6.18799 10.908
2 18.6162 -0.238467 -0.149752
3 9.1071 16.1463 0.0928379
3 -9.39333 16.2498 -0.016384
2 -18.6683 0.18219 0.0806182
1 9.7113 -16.2505 -0.275996
1 9.44102 -5.45562 15.3862
1 0.082919 9.69102 14.5243
3 -9.31097 -5.38479 15.2706
2 -0.109338 -10.8375 -15.2007
1 9.35124 5.24417 -15.3549
1 -9.22654 5.49252 -14.8374
1 17.5114 2.21153 0.251503
2 17.3106 -0.888502 2.23732
3 17.4282 0.878384 -2.09921
2 6.66497 15.9844 0.0826513
2 8.01961 15.1427 2.16571
2 9.34403 14.754 -2.17556
1 -10.6619 13.9989 -0.121217
1 -8.36312 15.5455 2.21166
2 -9.17343 14.8613 -2.12303
2 -17.5243 -2.31148 0.0847198
3 -17.274 -0.696983 2.30208
3 -17.2692 0.908663 -1.96573
3 -6.77833 -16.2217 0.150612
3 -9.54061 -14.5584 2.11688
2 -8.03999 -15.3415 -2.12392
3 10.5958 -13.874 -0.107333
1 9.39314 -14.9022 1.9985
1 8.05393 -2.82497 15.5094
2 6.74873 -5.33022 15.4726
2 1.38003 -8.512 -15.4008
1 6.72371 5.54076 -14.8342
3 16.24 4.642 -0.0732126
2 16.1182 -1.65264 4.44351
3 15.9923 1.6902 -4.32832
1 4.11442 16.0698 0.0305552
2 8.07395 12.4623 4.46318
1 9.47204 13.2831 -4.42377
2 -11.879 11.5365 -0.125957
1 -6.83348 14.9531 4.17064
2 -9.01396 13.2593 -4.1892
1 -15.8227 -1.58973 4.40345
1 -15.9866 1.63601 -4.13841
1 -3.9923 -16.2922 0.245321
2 -9.52154 -13.1267 4.35713
3 -6.73943 -14.6853 -4.29219
2 11.9812 -11.5836 -0.070097
2 9.47459 -13.2711 4.28316
3 4.91712 -15.485 -3.98919
1 4.00722 -5.46067 15.6004
1 2.58469 -6.08678 -15.4159
2 -2.79078 -6.0718 -15.1714
1 3.9125 5.38136 -15.101
2 14.6999 7.08147 -0.151909
1 14.7617 -2.46852 6.67305
1 14.7219 2.41434 -6.27137
2 1.31867 16.0389 0.151097
1 5.07076 14.1359 6.64175
2 9.49132 11.5989 -6.43256
3 -13.1667 9.11696 0.152987
2 -5.49055 13.843 6.61481
2 -9.37672 11.5249 -6.54085
2 -14.6528 -6.69297 -0.0841167
2 -14.7316 -2.25219 6.57969
1 -14.7538 2.15134 -6.34791
3 -1.35144 -16.1858 0.252381
2 -9.43458 -11.2862 6.5822
3 -5.28634 -14.0021 -6.56935
2 13.2686 -9.24176 -0.0449343
2 9.42868 -11.6891 6.49962
1 5.79936 -14.1235 -6.26438
1 1.17479 -5.47949 15.5156
2 -4.12143 2.22829 13.0056
3 4.10954 -3.76977 -15.273
3 -4.05208 -3.7624 -15.2696
3 13.3636 9.25611 -0.107901
1 13.3013 -3.2328 8.76651
1 3.85207 13.2475 8.91805
2 9.24742 9.92744 -8.83636
2 -14.5656 7.14972 -0.0307007
3 -4.09819 13.0833 8.7437
2 -13.6047 -9.22147 -0.0904429
2 -13.3442 -3.02365 8.96486
2 -13.3796 2.87765 -8.47147
2 -9.59097 -9.95596 8.74695
3 -4.07147 -13.2059 -8.70738
1 14.6831 -6.929 -0.11076
3 9.17102 -10.3024 8.69605
3 3.86374 -13.1832 -8.55609
2 3.73717 3.73684 15.4159
3 -1.47618 -5.36537 15.4496
1 -5.64174 1.71177 14.9043
3 5.30355 -1.39113 -15.1298
3 -5.38681 -1.32036 -15.0571
1 -1.68593 5.55452 -15.3375
3 12.0579 11.573 0.0103093
1 12.1545 3.94931 -10.9743
1 -3.84679 16.2152 -0.000876504
3 2.53691 12.3322 10.9423
1 -15.902 4.77668 0.119322
2 -2.77831 12.4317 10.9815
3 -9.28195 8.31084 -10.7186
2 -12.445 -11.4359 0.127101
2 -12.0482 -3.85182 10.9159
2 -12.0076 3.52312 -10.7185
2 -9.39372 -8.43651 11.0412
2 16.0797 -4.5552 -0.0155198
2 2.71828 -12.6407 -10.898
3 2.50906 5.96264 15.3685
1 -4.16445 -5.31756 15.4024
1 -6.60863 -0.711668 15.2623
3 6.73608 0.775138 -15.1547
1 -6.89982 0.873048 -15.3332
3 10.5188 13.9281 0.230583
1 10.6436 -4.47906 13.2424
2 10.8509 4.43758 -13.3327
2 -6.71134 16.3568 -0.0729224
3 1.15808 11.6238 12.9463
2 9.37963 6.886 -13.4683
1 -17.3521 2.497 0.047115
3 -1.26027 10.433 12.4715
2 -10.729 -13.5188 -0.00770099
2 -10.9135 -4.60768 13.1166
2 -10.4823 4.74215 -13.0206
2 6.04947 -16.2892 -0.580617
2 -9.48811 -6.98107 13.1626
2 -1.41902 -11.4921 -13.0103
3 17.1567 -2.2414 0.0811528
2 9.46548 -6.95587 12.9989
3 1.26875 -11.5813 -13.0158
3 1.30402 8.06982 15.8518
1 -6.7937 -5.28695 15.3165
2 -8.10927 -2.91847 15.4662
3 8.16155 3.01241 -15.4068
1 -8.07649 3.12135 -15.2767
2 -6.73764 5.4016 -15.2409
1 16.0122 3.04776 -2.07859
1 5.30133 15.2864 2.3459
2 -10.3836 12.5145 -2.40802
2 -16.0253 -2.99768 2.21082
2 -5.25239 -15.7749 -2.07474
3 10.5716 -12.1723 2.16924
3 5.34214 -3.0578 15.4897
2 -0.0416515 -6.18487 -15.2178
2 14.8151 3.8127 -4.28484
3 -10.5235 10.9167 -4.25445
2 -14.6657 -3.81159 4.44342
3 -3.87282 -14.8088 -4.23816
2 10.8028 -10.8911 4.27401
1 2.68763 -3.2267 15.6867
1 -1.32195 -3.78537 -15.2681
1 13.499 4.75265 -6.45347
3 2.5484 13.9904 6.69136
1 -10.6907 9.20451 -6.65584
1 -13.123 -4.8493 6.77502
1 -2.6854 -13.9333 -6.40775
1 10.8323 -9.38985 6.36012
2 0.0663035 -3.22565 15.6432
1 -2.6677 -1.44375 -15.1291
1 12.1657 5.42457 -8.76747
2 1.08235 13.0903 8.82143
3 -10.6701 7.49702 -8.69612
2 -1.36678 -13.2458 -8.58003
1 10.7249 -8.06134 8.72168
2 -2.54264 -2.91447 15.4089
1 -4.18726 0.926079 -15.0901
3 10.8103 6.09305 -10.8246
3 -0.160633 12.37 11.1093
3 -10.7502 5.90658 -10.8064
3 -10.8822 -6.29849 11.1421
2 -0.0306108 -12.3376 -10.9714
2 10.8848 -6.50052 10.808
2 -5.36477 -2.96068 15.4726
1 -5.32881 3.26358 -15.2807
2 16.1647 1.76516 2.38196
1 6.90731 14.5098 -2.03159
2 -16.1805 -1.37323 -2.11778
1 -7.0519 -14.7171 2.159
1 9.37623 -13.3372 -2.39692
2 14.747 0.833599 4.54868
1 6.83643 13.2709 -4.33175
2 -7.97534 12.0365 4.39738
2 -14.6727 -0.740665 -4.26607
1 -6.95392 -13.0785 4.57073
1 8.17188 -13.2621 -4.7643
1 13.5677 -0.106412 6.72574
2 6.54738 11.5715 -6.54991
3 -6.65769 11.4972 6.57724
1 -13.3935 0.00640403 -6.49113
1 -6.7966 -11.3999 6.64847
2 6.79624 -11.6515 -6.52374
3 12.2 -0.88456 8.82674
3 6.79537 9.99372 -8.6344
2 -5.41628 10.9074 8.77998
2 -12.1928 0.671741 -8.69908
2 -6.93118 -9.7735 8.83076
1 5.28921 -10.8613 -8.7133
2 10.6899 -1.72236 11.0017
2 6.81926 8.42867 -10.6083
2 -3.96637 8.31534 9.05491
1 -10.7412 1.40208 -10.7591
2 -6.92255 -8.37552 11.0404
2 3.98093 -10.4116 -10.7824
3 9.30227 -2.33652 13.2381
1 -2.45232 8.92924 11.0723
1 -9.31678 2.38259 -12.9089
3 -6.81796 -6.94371 13.1591
2 2.59051 -9.28238 -13.1359
2 -11.8965 9.77381 -2.06063
2 -14.7162 -5.4074 2.1674
2 -2.59682 -15.6005 -2.15161
1 12.1885 -10.1037 1.98193
2 6.31716 -0.504211 15.6228
1 1.33437 -3.80237 -15.4609
2 13.4594 6.30864 -4.30609
3 1.31382 14.6491 4.39333
2 -12.0752 8.37894 -4.35121
2 -13.1789 -6.05194 4.57617
1 -1.27072 -14.5957 -4.19973
2 12.164 -8.54909 4.06403
1 1.26984 -0.766232 15.3425
2 0.0691765 -1.50573 -15.3139
1 11.9622 7.0146 -6.55392
1 -0.0531234 13.994 6.67873
3 -11.8896 6.83999 -6.53135
3 -11.8182 -6.84092 6.6262
2 0.245222 -14.1222 -6.29604
2 12.2481 -7.1624 6.48864
3 -1.49492 1.04921 -15.3034
3 10.6514 7.57956 -8.67754
1 -1.47455 12.9822 8.86355
3 -12.0958 5.25897 -8.54289
1 -10.7346 -7.72958 8.85876
2 1.37293 -13.1591 -8.70552
2 12.1252 -5.49299 8.75299
3 -3.87028 -0.749192 15.2926
2 -2.81366 3.28456 -15.3841
1 14.8503 4.07026 2.16819
2 3.94945 14.5652 -2.02341
2 -10.5136 11.0405 2.2416
1 -14.8592 -3.61503 -1.88253
2 -3.87998 -14.6844 2.37743
2 10.64 -10.6523 -2.22772
3 13.4662 3.05529 4.35143
2 -13.2708 -3.22688 -4.45391
3 -4.2296 -13.1076 4.69583
2 9.39447 -10.0059 -4.48737
2 11.8991 2.36673 6.66829
3 3.96137 11.4725 -6.63901
2 -8.0232 9.33657 6.56108
1 -11.9727 -2.19371 -6.62801
2 -4.2899 -11.5993 6.70976
3 7.92859 -9.224 -6.55167
2 10.8359 1.60485 8.89096
3 3.13622 9.32967 -8.8841
1 -6.60596 8.37354 9.19368
2 -10.7768 -1.57882 -8.89331
2 -4.06134 -9.8545 8.93687
2 6.77107 -8.43545 -8.63879
2 9.4255 0.69854 11.0145
1 -3.93819 6.82888 11.2175