3398
 Atoms. Timestep: 6000
2 -0.368792 0.189845 -0.291887
3 2.19739 0.175338 -0.269161
2 1.17928 2.48067 -0.246167
1 -2.91154 0.321082 0.079809
3 -1.45982 -2.11157 0.194957
2 1.09847 -2.15608 0.0284962
2 1.23827 -0.635359 2.12971
2 0.0159007 1.75191 2.03244
2 -1.57408 -0.531646 2.17232
1 0.876526 0.633008 -2.52562
1 4.84599 0.0981347 -0.0604855
1 2.39045 4.82866 -0.311825
3 -2.7393 5.06485 -0.113866
2 -5.4844 0.103662 0.0303641
2 -2.87771 -4.38429 0.132883
3 2.28167 -4.50608 -0.107522
2 2.65772 -1.1868 4.2931
2 -0.312576 3.33183 4.39678
2 -2.89511 -1.34814 4.5211
2 -0.20851 -1.88755 -4.1995
3 2.47852 1.72662 -4.46004
3 -2.78006 2.00086 -4.41636
1 3.60645 2.52452 -0.188822
3 3.64178 0.889158 -2.39653
1 -0.25449 4.52423 0.0971714
1 1.50991 3.81966 2.01253
2 2.67582 3.2342 -2.4692
1 -4.06352 2.63787 -0.062418
2 -1.62656 4.21094 2.23412
1 -2.54591 3.297 -2.24928
1 -4.15071 -2.1744 0.092144
1 -4.26692 -0.694696 2.33671
1 -3.90627 1.00315 -2.28059
3 -0.355003 -4.34045 0.0440736
2 -2.88794 -3.0401 2.22125
2 -1.40902 -3.47764 -2.05355
3 3.59037 -2.14777 -0.00902029
2 2.53737 -2.85849 2.17872
2 1.04351 -3.65736 -2.23545
3 1.27996 1.0134 4.18318
1 -1.61306 1.03438 4.49759
1 -1.46966 0.113028 -3.29461
2 -0.0492216 1.88242 -4.39114
3 0.0695794 3.30841 -2.38638
1 -2.81805 1.86521 2.24175
3 -2.78388 -1.47197 -2.03496
2 -0.209081 -2.9919 2.26221
2 2.5764 -1.32884 -2.29724
2 7.73048 0.247271 -0.183912
1 3.81788 7.01483 -0.0931672
1 -4.08309 7.27482 -0.168098
1 -8.03805 0.177748 0.0186466
1 -4.09285 -6.92847 0.0980274
3 3.75309 -6.76686 -0.121609
1 4.02559 -2.63288 6.64391
2 -0.178992 4.97589 6.65539
2 -4.491 -1.9685 6.89804
3 0.175863 -4.19521 -6.40085
2 3.2583 2.79064 -6.7414
3 -4.02342 2.36426 -6.60793
3 6.33104 2.53566 -0.288364
1 6.19274 -0.757101 1.98571
3 6.51875 0.908078 -2.63582
3 1.0858 7.253 0.0132823
1 2.57573 6.16827 2.09333
3 3.93245 5.6552 -2.40986
1 -5.36127 4.97058 -0.184983
3 -2.63957 6.57462 2.01286
1 -3.83749 5.58492 -2.446
3 -6.85277 -2.24183 0.250503
1 -6.96992 -0.689524 2.42489
1 -6.62842 0.925549 -2.15354
1 -1.44059 -7.04093 0.0793744
3 -4.15091 -5.31889 2.41297
1 -2.74259 -6.05662 -2.16037
2 3.5445 -5.35174 2.09895
3 2.55933 -6.11202 -2.04941
2 2.59941 -0.0458353 6.54005
3 1.26194 -2.34738 6.58508
2 -1.53884 2.9239 6.6625
3 1.29779 -2.04436 -6.60098
1 5.16956 4.71895 -0.331073
2 5.2619 -1.44358 4.50066
3 4.93957 1.84326 -4.97109
2 -1.50966 7.19434 -0.381592
3 0.976318 5.56298 4.13159
1 3.46955 4.07053 -4.72101
2 -6.71118 2.52854 -0.0743704
2 -1.55068 5.68385 4.24828
2 -3.87794 4.57538 -4.79339
3 -5.59533 -4.59038 0.312572
2 -5.99702 -1.39694 4.89986
1 -5.29929 1.74302 -4.40435
2 1.19202 -6.98182 0.0439414
2 -4.47238 -3.6528 4.58392
1 -1.24433 -5.12175 -4.47464
1 6.3254 -2.37334 -0.0607813
2 3.86148 -3.85161 4.41045
1 1.40929 -5.08887 -4.19192
1 1.78279 2.33135 6.46529
1 -1.19893 -2.14376 6.28013
2 -2.80544 0.443146 6.69962
2 2.74766 0.20779 -6.73734
2 -2.62062 0.33168 -6.47472
2 -1.47559 2.7373 -6.74243
1 5.15455 3.24326 -2.62283
2 -0.208111 6.36956 1.9353
3 -5.20615 3.26065 -2.33147
2 -5.6001 -2.97585 2.36343
1 -0.0928813 -5.98755 -2.11098
2 5.18085 -3.02208 2.08921
2 0.126492 0.38159 6.30284
2 -0.0274603 0.353263 -6.4805
1 4.97599 1.50474 2.08925
3 1.55068 6.09551 -2.52878
2 -4.13686 4.23446 2.09258
1 -5.27996 -1.41199 -2.32691
1 -1.2619 -5.23048 2.29299
1 3.69895 -3.84629 -2.1538
1 3.87639 0.936703 4.4732
2 -1.39019 4.09749 -4.42791
2 -3.10053 3.46436 4.76068
3 -3.9263 -0.527013 -4.34404
2 -1.84717 -3.66036 4.52829
1 2.36119 -2.65981 -4.3274
3 4.11061 3.97728 2.00895
3 -5.44613 1.89955 2.12257
2 -4.18671 -3.75096 -2.21045
1 -0.128969 -7.64134 2.36951
2 5.12045 -1.25937 -2.24334
3 2.66336 3.23412 4.13759
1 -1.10362 5.67938 -2.38117
1 -4.47126 0.96017 4.54084
2 -2.73978 -3.10967 -4.36217
2 1.07774 -3.52769 4.4366
1 3.91178 -0.417076 -4.50509
2 10.5464 0.0202163 -0.316538
3 5.39855 9.34215 0.0182271
1 -5.47558 9.60537 -0.111114
2 -10.649 0.21535 -0.045428
1 -5.5239 -8.99312 0.186285
1 4.99451 -9.11018 0.0919086
2 -0.270546 5.81385 9.10467
2 -5.58351 -4.42755 6.80941
2 -0.107525 -5.96562 -8.56172
3 5.08584 3.19122 -8.61109
1 -5.67416 3.81662 -8.28939
3 9.06915 2.37435 -0.16046
2 9.23589 -0.912451 1.59765
2 9.24571 0.828821 -2.46135
1 2.58132 9.31433 -0.329385
1 3.99219 8.63516 2.1405
2 5.2949 7.99528 -2.17167
2 -6.75456 7.23139 -0.183768
1 -3.81476 8.83564 2.04001
1 -9.51843 -2.01602 0.108653
2 -9.42903 -0.435162 2.18377
1 -9.31208 0.941892 -2.01571
3 -2.74723 -9.22753 0.248367
2 -5.34479 -7.44231 2.2307
3 -4.19077 -8.45199 -2.06554
1 6.4906 -6.85767 0.0284863
3 5.04131 -7.7275 2.16973
2 3.72711 -8.44779 -2.13884
2 4.01589 -1.14541 8.86279
3 2.29323 -3.4196 8.7632
2 0.0985415 3.19454 11.2853
2 1.31551 -3.43872 -8.80299
1 -1.22728 -3.63426 -8.58807
2 2.22126 3.59605 -8.81184
2 7.85441 4.71552 -0.307803
1 7.80813 -1.44935 4.33361
3 7.82044 1.53189 -4.53538
2 -0.0261248 9.53641 -0.257128
1 2.41123 7.8894 4.25992
3 -8.10305 4.9546 0.155206
3 -2.66538 8.0719 4.07269
3 -8.23342 -4.34454 0.188365
3 -8.50202 -1.40382 4.51046
3 -8.01357 1.58552 -4.23161
1 -2.71132 -7.76709 -4.37208
2 7.81709 -4.50266 0.0824332
2 5.06838 -6.1502 4.2843
2 2.64832 -7.59066 -4.35262
2 2.406 1.21681 8.8165
3 -0.275777 -2.88773 8.6768
1 0.0268492 1.97559 8.73215
2 2.80845 -1.12744 -8.92204
2 -2.46654 -1.34411 -8.51348
3 -0.397263 3.64393 -9.06826
2 6.62703 7.11894 0.0195673
1 6.56356 -2.36061 6.80041
3 6.62464 2.33338 -6.74988
1 1.15797 7.15445 6.38713
2 -9.29724 2.42372 -0.117882
2 -6.11861 5.46524 -6.25961
2 -6.88085 -6.70216 -0.0245392
3 -7.03048 -3.64713 4.5038
1 -6.75697 2.42129 -6.38948
3 2.31655 -9.35206 -0.126446
3 -1.38164 -6.78192 -6.40498
1 1.29995 -6.67679 -6.46334
2 -2.80299 -2.74223 8.92198
3 -3.78935 2.74629 7.82755
1 3.37889 1.16487 -9.40229
2 -4.08079 0.767996 -8.7894
1 -3.22795 3.10223 -9.26625
3 7.78693 2.92972 -2.29452
2 1.4096 8.66191 1.94915
3 -6.55921 5.79966 -2.29755
2 -8.34244 -2.96315 2.37596
3 -1.36491 -8.39439 -2.1597
1 6.29625 -5.3575 2.12231
3 0.00079943 -1.12863 -8.65885
2 -0.100553 7.9279 4.21232
3 -6.45748 4.06727 -4.22451
2 -0.101761 -7.49556 -4.2868
3 6.64417 -3.77562 4.32648
1 -1.21127 -0.52986 8.34467
2 -1.33465 1.31046 -8.86138
3 -5.2563 6.65688 2.05019
1 -7.9974 -1.4136 -2.08187
2 -2.78714 -7.51672 2.27491
3 6.44233 0.846962 4.12317
2 2.75937 6.32481 -4.7289
2 -4.04034 5.92691 4.20068
3 -6.5996 -0.601427 -4.30029
3 -2.91129 -5.99695 4.47481
2 5.13131 -6.01928 -2.28036
3 5.17633 -0.257193 6.56518
1 1.72379 4.89215 -6.64426
3 -5.25129 0.215989 -6.42432
2 -3.07193 -4.24038 6.7367
2 2.603 -4.41363 -6.24384
1 6.65663 5.3903 -2.40364
2 -1.24051 8.71867 1.99731
1 -7.93238 3.3628 -2.06768
2 -6.92493 -5.25342 2.43706
2 1.12894 -8.35788 -2.23178
1 7.79259 -2.98355 2.11932
1 1.07765 1.3283 -8.58945
2 6.61649 4.03253 2.04058
3 0.0616362 8.09099 -2.27529
2 -6.71649 4.0574 2.11979
3 -6.77864 -3.66664 -2.00253
3 6.28925 -3.85004 -2.31195
2 5.15697 3.14339 4.07109
2 -0.316832 -5.97527 4.3478
1 5.08658 -2.80775 -4.32488
1 3.35696 3.59359 8.40478
2 -3.96108 -2.06831 -6.31378
2 -0.465003 -4.74463 6.69944
2 5.31963 6.33341 2.09403
1 -2.45108 8.09889 -2.56356
2 -8.05948 1.7655 2.25504
1 -5.40535 -5.96961 -2.05925
2 2.5162 -7.7464 2.16598
2 7.6236 -1.60469 -2.26509
3 3.98173 5.59739 4.15674
3 -2.40338 6.64892 -4.88329
3 -7.1535 1.00022 4.57652
3 -4.04355 -5.29986 -4.40302
2 2.43341 -6.26111 4.38531
1 2.334 4.85086 6.24275
2 -2.67734 -4.63841 -6.43154
1 2.27262 -4.78374 6.47704
1 5.27962 -0.0826175 -6.85209
1 12.9069 0.0568118 0.0370568
1 6.76083 11.4802 -0.0166974
2 -6.59144 11.7744 -0.00882529
2 -13.5572 0.38181 0.0699372
2 -6.72692 -11.2347 0.419355
2 6.5344 -11.685 -0.10294
1 6.34335 -3.9556 10.5559
2 -0.354613 7.84169 10.9223
2 -5.38737 -2.91645 9.00696
3 0.257635 -7.5838 -10.7742
3 6.65822 3.98523 -10.9854
3 -6.93566 4.24465 -10.5094
2 11.7767 2.4137 -0.0661894
2 4.09615 11.5129 -0.187339
2 5.35584 10.8505 2.11444
1 6.9677 10.0513 -2.44288
1 -8.13649 9.55711 -0.0591591
3 -5.37228 11.0989 2.1308
3 -12.1713 -2.13334 0.311669
1 -12.2931 -0.542146 2.33119
3 -11.978 0.867427 -2.08994
2 -3.8909 -11.5802 0.192983
1 -6.90814 -9.99816 2.39561
1 -5.56954 -10.6965 -1.8006
2 7.80317 -9.23459 -0.11295
2 6.38784 -9.99326 2.26811
2 5.10193 -10.8499 -2.39178
3 5.23824 -1.68136 11.1819
2 3.74269 -3.83339 10.8641
2 -1.17554 5.29346 11.3869
2 1.33089 -5.29154 -10.7091
2 -1.30344 -5.5041 -10.9411
1 3.92985 3.65945 -10.9641
3 10.5267 4.76274 -0.091955
2 10.4168 -1.36741 4.3475
3 1.37429 11.6348 -0.146709
2 3.84113 10.2297 4.27134
2 6.47724 8.33933 -4.35155
3 -9.30076 7.123 -0.0667963
1 -4.06747 10.2677 4.28735
3 -10.8776 -4.25928 0.155152
2 -11.1796 -1.43418 4.81437
2 -10.4405 2.26031 -3.67394
2 -1.26541 -11.4477 0.343488
2 -6.67773 -8.37454 4.2738
2 9.26448 -6.91317 0.0826223
3 6.21466 -8.47821 4.30267
3 3.79833 -9.85806 -4.39148
2 4.03917 0.623893 10.812
2 0.981116 -3.72214 11.0051
2 -1.77374 3.29466 9.45781
2 2.80862 -3.10275 -10.9755
2 -2.46366 -2.8848 -10.6804
2 1.09215 3.80259 -11.0844
3 9.24065 7.068 -0.0607321
2 8.99286 -2.37996 6.63958
2 9.15645 2.15687 -6.60881
1 -1.36134 11.918 -0.040364
3 2.43281 9.36757 6.37239
2 6.51176 6.86164 -6.55224
1 -10.7478 4.93474 -0.393447
2 -2.59697 9.40895 6.37167
2 -9.6906 -6.60156 0.0802538
3 -9.68542 -3.71836 4.46643
2 -9.51938 2.40465 -6.22868
3 1.343 -11.5622 0.223539
3 -5.41581 -7.79148 9.09522
2 -2.70697 -9.18553 -6.40633
2 10.464 -4.60736 0.0516724
2 6.40244 -6.73105 6.65772
1 2.66981 -9.0088 -6.45683
3 2.51161 2.83522 10.8159
3 4.07545 -0.901174 -11.0271
2 -3.77614 -0.434008 -11.0871
2 -1.85675 4.00278 -11.3291
2 8.06844 9.40726 0.0209167
2 7.76491 -3.11143 8.73622
3 7.96207 3.05291 -8.70985
3 -3.9799 11.9095 0.110811
2 0.974541 8.58669 8.46347
3 6.4203 5.43992 -8.87177
2 -12.0173 2.62816 -0.239243
1 -1.29646 7.50123 7.49166
1 -7.43698 5.80663 -8.42207
2 -8.2087 -8.95783 -0.0599557
1 -7.60834 -2.72962 8.38016
3 -8.28328 3.05976 -8.37878
2 3.95432 -11.5492 0.0177781
2 -1.26278 -8.27572 -8.6586
3 11.736 -2.30632 -0.0230055
2 1.27103 -8.37667 -8.54483
3 -3.6508 -0.517047 9.27157
3 5.53211 1.48142 -11.0649
3 10.29 3.08255 -1.95762
3 2.60777 11.1245 2.13154
2 -10.9138 -2.83964 2.42392
1 -2.79735 -10.7205 -2.047
2 7.77295 -7.65871 2.14045
2 2.50755 -1.44835 10.8997
1 0.0477045 -2.91935 -10.9079
2 9.05053 3.85005 -4.36608
2 1.13434 10.2655 4.22974
2 -7.66767 6.51927 -4.45169
3 -8.34201 -6.13551 4.43939
2 -1.35578 -9.86774 -4.18029
3 7.61628 -6.36379 4.42989
2 -0.283467 -1.32289 10.7111
2 7.80174 4.45908 -6.61215
3 -0.101709 9.43462 6.29536
1 -8.45285 4.68938 -6.14346
1 -0.0559545 -9.14643 -6.23732
3 8.03923 -4.7196 6.42259
1 -5.30333 2.20697 -10.4874
1 10.5347 1.12759 1.96797
2 3.88291 10.2809 -2.34135
2 -6.56735 8.85234 1.90674
3 -10.6803 -1.40836 -2.12476
1 6.49487 -8.45431 -2.14565
1 9.10458 0.859741 4.30343
2 3.86934 8.64752 -4.32386
1 -5.44873 7.97071 4.38584
2 -9.25675 -0.714271 -4.30847
2 -4.1985 -8.40182 4.5254
2 5.19603 -7.80348 -4.29654
1 7.67725 0.159602 6.58511
3 -3.75475 7.16724 6.44225
1 -7.9914 0.0967572 -6.4163
2 4.00842 -6.70862 -6.42868
3 6.63082 -0.838239 8.94147
2 4.1013 5.38504 -7.63315
1 -2.54467 5.17134 7.43303
1 -6.7598 0.765064 -8.67226
3 -4.10971 -5.25789 8.87175
2 2.66078 -5.83425 -8.68662
3 9.20802 5.466 -2.30011
1 -0.0803966 11.0174 2.0756
2 -9.05494 5.70249 -2.13887
3 -9.65327 -5.30421 2.39218
2 -0.060821 -10.6185 -1.85665
1 9.23343 -5.54097 2.21087
3 1.20382 0.725731 11.0961
1 1.40675 0.00319667 -10.9095
2 7.91471 6.13503 -4.50337
3 -1.40448 10.1488 4.20342
2 -5.5686 -6.04982 4.62746
2 1.27354 -10.0474 -4.23602
3 9.15316 -3.66431 4.35874
3 -1.6887 0.883906 10.5487
3 -0.467146 1.84202 -11.1794
1 9.14497 3.92724 1.95651
3 1.26293 10.4312 -2.38939
2 -7.95724 6.45643 2.16929
3 -9.29926 -3.65581 -1.97865
2 -1.41511 -9.82231 2.39867
1 7.70671 -6.23461 -2.54416
1 7.77249 3.03855 3.99494
3 1.43109 8.56406 -4.11111
2 -6.53648 5.50546 4.14582
3 -7.94123 -3.06801 -4.16221
2 -1.50078 -8.22791 4.56018
2 6.41066 2.31882 6.30292
1 0.217324 6.45203 -4.86085
1 -5.67602 3.1384 4.58582
2 -6.5251 -2.26345 -6.42451
1 -2.24551 -6.91649 6.69077
2 5.31123 -4.47193 -6.16279
2 5.09999 1.3476 8.49915
3 0.715816 5.88924 -8.92945
3 -4.77106 4.97187 6.41891
1 -5.23028 -1.4331 -8.67832
3 -1.74855 -5.47823 8.8698
2 4.04242 -3.65553 -8.51846
2 8.16922 7.80504 -2.33681
2 -2.63321 11.2481 2.21231
2 -11.1909 5.11419 -3.31958
1 -8.14824 -7.4633 2.24259
3 2.4478 -10.8439 -2.07543
1 10.4664 -3.15449 2.17446
2 -1.3028 10.383 -2.20803
2 -8.13121 -5.94255 -2.09085
1 9.13855 -3.8177 -2.06947
2 6.48621 5.48359 4.22402
2 -8.49513 3.34134 4.21835
3 -6.74311 -4.92136 -4.27523
1 1.1415 -9.7882 2.20996
2 7.66999 -3.37544 -4.46462
2 5.04098 4.77536 6.50379
2 -0.78406 5.38108 -6.79555
3 -5.34197 -4.51167 -6.33198
2 1.13549 -7.0558 6.38856
1 6.59115 -2.43502 -6.54918
1 -5.60322 1.51344 6.81453
2 -3.95051 -3.70738 -8.68479
2 0.934844 -5.47832 8.77976
2 5.42576 -1.46791 -8.83444
2 6.66304 8.64374 2.25863
2 -3.83597 10.314 -2.02753
2 3.62442 -10.3699 2.22784
3 10.4206 -1.52398 -2.2732
2 5.08694 7.83995 4.29672
2 -5.83211 8.72904 -2.5328
2 -9.86756 0.947793 4.41818
3 3.76342 -8.48305 4.26705
3 9.00242 -1.0206 -4.38791
3 3.71757 7.15695 6.33561
2 -5.03684 6.88549 -4.22065
3 -7.56558 -0.557574 6.92202
3 -3.98647 -6.97727 -6.67519
2 3.6704 -6.83394 6.52872
3 8.07792 -0.132698 -6.54295
2 2.23136 6.00702 8.63933
3 -3.61967 4.96072 -7.44911
1 -6.28985 -0.567446 8.7877
3 -2.63632 -6.11393 -8.59763
2 3.56457 -5.43675 8.64937
2 6.57526 0.997598 -8.81089
2 15.5201 -0.0787537 -0.238444
1 8.08894 13.9159 -0.130518
1 -8.01287 14.4581 -0.00161637
1 -16.3775 0.00516266 0.291013
1 -8.08288 -13.601 0.0709536
1 7.74837 -13.7014 0.0509979
1 7.89967 -4.67301 12.7216
1 -7.11603 -2.22045 13.2521
1 -0.249358 -9.16008 -13.111
2 -8.45413 6.48566 -10.6034
3 14.4222 2.27713 -0.176571
2 14.219 -0.848223 2.15778
2 14.3912 0.84975 -2.36377
2 5.29783 14.0285 -0.0461659
3 6.65999 13.0716 1.98052
3 8.08132 12.3805 -2.15823
1 -9.05766 12.049 -0.140497
2 -6.58849 13.5728 2.18322
2 -14.8217 -1.98626 0.177161
3 -14.8272 -0.286394 2.40095
2 -14.667 1.21048 -2.04371
1 -5.40703 -13.7131 0.0937319
2 -8.36228 -12.0949 2.31555
1 -6.87856 -12.9465 -2.13294
1 9.06294 -11.5756 0.141668
2 5.08905 -16.3791 -2.81441
2 6.7164 -2.36403 13.4115
2 5.20086 -4.44408 13.0675
1 -2.64635 6.59791 12.6829
1 1.46567 -6.92929 -13.2701
1 -1.31358 -6.92021 -13.0212
1 5.3153 4.52984 -13.0097
3 13.121 -1.56504 4.25463
1 12.9539 1.30284 -4.2273
1 2.42863 13.9279 -0.224949
1 5.24524 12.3969 4.3076
1 -5.2759 12.687 4.29133
2 -6.40797 13.0694 -4.31181
2 -13.4808 -4.4846 0.153294
2 -13.7128 -1.54585 4.6651
3 -2.66308 -13.8482 0.178175
2 -8.30437 -10.604 4.55309
1 -5.30234 -12.0939 -4.09527
3 10.576 -9.21971 0.0149844
2 8.88961 -8.57442 4.38408
3 5.27908 -0.0189302 13.1633
1 2.38372 -4.43308 13.1976
3 -2.75487 3.07559 11.8715
1 2.75828 -4.54881 -13.1017
3 -2.38179 -4.63128 -13.0585
2 2.75921 4.60681 -13.2441
1 11.9691 7.05107 -0.108644
1 11.5592 -2.21199 6.39645
3 -0.0356932 14.2017 -0.0801573
3 3.70099 11.5972 6.48429
2 7.84097 8.98872 -6.54434
2 -10.718 9.43265 -0.149
2 -3.98507 12.0823 6.57662
3 -12.2992 -6.70192 0.0363652
1 -9.53235 -2.34324 6.74503
2 -11.9636 2.07625 -5.64653
2 -0.00413469 -13.7935 0.201155
3 -6.89673 -11.6587 6.67961
2 -4.06797 -11.4902 -6.51066
2 11.8388 -7.0585 0.051313
2 7.23986 -9.0281 7.93977
3 3.85104 -11.3158 -6.46571
1 3.9243 2.19966 12.803
3 -0.261582 -4.59994 13.0637
1 4.38406 -2.32551 -13.1879
2 -3.75016 -2.36636 -12.8925
1 10.5913 9.51127 -0.180417
3 10.4235 -2.90944 8.67912
2 10.5309 3.07351 -8.73951
3 2.44799 10.8309 8.63079
2 7.93123 7.52602 -8.68415
1 -13.3028 4.75032 -0.374341
3 -2.62492 10.8905 8.54153
2 -8.85951 8.20141 -8.7083
2 -10.8659 -8.95314 0.140015
3 -10.1727 -2.95514 9.18318
3 -10.9177 3.04043 -8.33226
1 2.7067 -13.7927 -0.0984608
2 -2.6015 -10.7589 -8.68695
2 13.1077 -4.80184 0.131315
3 2.76453 -10.5686 -8.47102
2 2.22626 4.35526 12.9606
1 -2.76363 -4.55654 13.0397
2 -3.87416 0.874813 11.7016
2 5.55154 -0.0828333 -13.1969
2 -4.5387 4.16711 -12.1298
2 9.44039 11.6276 -0.0632766
2 -5.11981 14.1247 -0.0461758
3 1.22762 9.96898 10.7902
3 7.79412 6.15837 -10.9586
2 -1.42176 10.3793 10.7661
1 -9.30566 -11.2242 -0.0734948
2 -9.32339 -5.47103 8.95545
3 -9.47636 4.12423 -10.3792
3 -6.89153 -3.94314 11.3686
3 -1.41814 -9.91305 -10.9622
3 7.93371 -6.13955 10.8562
2 1.32686 -9.92569 -10.6232
2 1.02059 6.6148 12.7396
2 -4.11623 -3.85903 11.0273
2 6.82129 2.50757 -13.243
1 -6.67571 3.0599 -12.6998
2 13.1066 2.95965 -2.18102
1 4.02501 13.2436 2.10566
2 -7.48314 11.3531 -2.38708
2 -13.6479 -2.941 2.42001
2 -4.01054 -13.009 -1.87227
2 9.12067 -9.94192 2.13629
3 0.0512547 -4.65708 -13.0041
2 11.8507 3.53675 -4.27083
1 2.53961 12.4404 4.37804
2 -7.88514 9.37719 -4.19166
3 -2.62091 -12.1827 -4.15242
2 0.833845 -2.14006 12.9153
2 -1.15613 -2.46106 -13.2194
2 10.658 4.41948 -6.44049
3 1.27424 11.6152 6.47105
1 -9.81394 7.2212 -6.32125
2 -8.2761 -4.65117 6.64733
2 -1.28555 -11.5575 -6.54631
2 8.98347 -7.07525 6.68237
1 -1.55247 -3.57382 10.9141
2 -1.31612 -0.611086 -10.9432
3 9.3299 5.27042 -8.51218
2 -0.0312799 10.9341 8.52955
2 -9.99057 5.60989 -8.53246
3 -6.70826 -5.35501 9.06632
1 -0.0225192 -10.7364 -8.69302
1 9.05223 -5.22971 8.61433
2 -2.90914 -1.43413 11.5003
3 -3.60618 1.89707 -12.2016
2 13.3129 1.71281 2.02801
1 5.33678 12.2152 -2.2875
1 -7.88054 11.0408 2.15758
2 -13.2728 -1.59036 -2.18244
3 -5.35384 -12.1532 2.37585
1 7.76457 -10.8875 -2.14425
1 11.8132 0.596079 4.23807
1 5.26853 10.775 -4.50405
3 -6.65499 10.3885 4.25891
2 -11.9481 -0.443924 -4.27949
2 -5.57094 -10.7635 4.59655
2 6.37494 -10.1512 -4.44478
3 10.3018 0.148111 6.62833
1 5.0017 8.78974 -6.58065
1 -5.29077 9.54384 6.64891
3 -10.6621 -0.0304552 -6.50288
3 -5.49722 -9.16596 6.73504
3 5.20657 -9.19816 -6.52889
2 5.14949 7.63959 -8.67459
2 -9.346 0.824876 -8.56857
1 4.22299 -8.28725 -8.79572
2 7.78546 -1.79651 11.1651
2 -3.78559 8.61212 8.74122
3 -7.98491 1.75907 -10.7144
3 -5.50518 -6.27633 10.9075
2 2.74185 -7.55172 -10.6892
2 11.7793 5.33118 -2.1725
2 1.31413 13.3397 2.00071
3 -8.07675 7.9605 -2.09109
1 -12.4193 -5.23378 2.18184
2 -1.21672 -12.9415 -1.90361
3 10.4839 -7.77728 2.27564
2 2.74708 -0.163612 13.0792
1 1.48421 -2.19199 -13.0086
2 10.6934 6.01031 -4.43574
2 -0.48606 12.4063 4.64024
2 -10.0561 7.70127 -3.7226
1 -11.113 -6.01145 4.52787
2 -0.149805 -12.4339 -4.14835
2 10.2636 -6.08733 4.53529
3 0.472172 -0.409434 14.8064
3 9.33963 6.65771 -6.52911
2 -12.3484 6.49637 -7.59404
2 -6.82291 -6.95205 6.91591
2 1.54153 -12.1123 -6.21626
3 10.4447 -4.47252 6.61573
3 -0.886384 -0.061552 12.693
2 11.7263 3.84625 2.25913
2 2.44119 12.5568 -2.31845
2 -2.64855 -12.2527 2.35479
1 9.20818 -8.33659 -1.97716
1 10.458 3.24471 4.30383
3 2.63654 11.2876 -4.59395
2 -8.01513 8.19422 4.00767
2 -10.5096 -3.01373 -4.36335
2 -2.96733 -10.6422 4.52033
3 8.93068 2.54797 6.26201
2 2.30428 9.36581 -6.34708
2 -6.29948 7.02295 6.5721
2 -9.26932 -2.20294 -6.63432
3 -2.97392 -9.24518 6.69318
1 6.55555 -7.01442 -6.30134
1 2.86138 7.52862 -7.89645
1 -4.898 6.25442 8.70041
3 -2.96549 -7.79068 9.05074
2 5.57772 -5.98146 -8.51645
2 2.53353 6.02662 -10.6729
2 -2.73224 6.78149 10.1256
2 -6.53798 -0.43124 -11.1194
2 -2.89012 -6.3143 11.075
2 4.14132 -5.20359 -10.9355
2 10.8397 7.60299 -2.20925
1 -1.25923 13.4445 2.14604
1 -11.8452 7.28476 -0.428083
2 -10.9384 -7.41347 2.47501
2 1.59656 -13.1749 -2.10561
3 11.8594 -5.51778 2.2639
2 0.876922 1.74946 13.4259
2 2.87691 0.221391 -13.0174
1 9.44341 8.39278 -4.31326
2 -10.9779 4.68194 -6.27585
2 -9.50866 -8.38177 4.37375
2 2.92838 -12.269 -4.26656
2 11.6543 -3.98466 4.30084
1 -1.60006 1.27682 14.8226
2 10.4075 6.35227 2.21134
3 -0.0968906 12.6577 -2.18304
1 -10.5661 6.78659 2.04143
1 -10.967 -5.77227 -2.08886
2 0.111583 -12.1873 2.46593
3 10.4147 -6.02204 -2.02548
2 9.12187 5.47836 4.59
2 -9.4264 -5.21827 -4.09904
2 0.0406608 -10.581 4.59178
3 9.24071 -5.27592 -4.34395
2 7.74103 4.84001 6.61672
3 -1.02752 8.68621 -5.35002
2 -7.48547 4.67676 6.43608
2 -7.91391 -4.51938 -6.42374
2 -0.4456 -9.24674 6.5811
3 7.78885 -4.67273 -6.56244
1 6.28824 3.7924 8.44067
2 0.320469 7.76756 -7.29116
2 -6.02075 3.94779 8.48894
2 -6.59003 -3.68468 -8.57638
2 -0.52337 -7.72679 8.56473
2 6.74043 -3.83243 -8.79679
3 4.85238 3.12497 10.538
2 -0.274129 6.26434 -11.3076
1 -4.16738 3.96445 10.0622
2 -5.22103 -2.91248 -10.8569
1 -0.478971 -6.20909 11.0049
2 5.79181 -3.0065 -11.2391
3 -3.94949 13.4573 2.2842
2 -13.2356 3.26115 -2.59235
3 -9.52897 -9.65084 2.08654
2 12.9186 -3.06951 2.23233
2 -1.16614 3.67256 13.7034
1 4.09088 2.28238 -13.1549
3 9.25257 8.68922 2.13084
2 -2.65131 12.6969 -1.93294
3 -11.8104 4.12528 1.75609
3 -9.50444 -8.16885 -1.91042
2 2.63534 -12.6499 2.31017
1 11.8987 -3.79086 -1.98304
1 7.85127 7.67194 4.4186
3 -2.66458 10.6094 -4.24499
1 -9.6018 4.46007 2.4009
2 10.6706 -3.12477 -4.28523
1 6.25774 7.07903 6.57559
2 -3.74408 8.83793 -5.56557
2 -8.8757 2.10683 6.31561
2 -6.47978 -6.89601 -6.25464
1 2.09131 -9.67849 6.29951
1 9.3113 -2.51342 -6.46959
3 4.87943 6.01867 8.72206
2 -2.27287 7.38115 -7.31434
2 -7.63154 1.51008 8.38263
2 -5.40289 -6.02699 -8.62565
2 2.19719 -7.82136 8.68726
1 8.16883 -1.61883 -8.93773
1 3.35431 5.23298 10.6707
2 -2.0268 5.72501 -9.40956
2 -5.17912 1.82548 9.69565
2 -3.75067 -5.51182 -10.869
2 2.46334 -6.17964 10.983
3 6.78211 -0.474181 -10.8893
3 7.92388 11.0232 2.09112
3 -5.24607 12.4582 -1.96586
2 -10.7281 1.8736 2.05129
3 5.28927 -12.4581 1.98389
2 13.0469 -1.53856 -2.17371
2 6.52769 10.0949 4.32577
2 -5.28599 10.8358 -4.05343
3 -12.4212 0.741358 4.7906
3 -6.80994 -9.98829 -3.90802
1 5.09778 -10.9322 4.23745
2 11.6928 -0.789551 -4.24062
1 5.12589 9.37891 6.82931
1 -6.19533 8.70726 -5.73715
3 -10.2612 -0.0444937 6.67198
2 10.5261 -0.0404813 -6.56874
2 3.51915 8.37365 8.42163
2 -4.85576 7.33018 -7.74529
3 -8.92711 -0.633446 9.05959
2 -3.95577 -8.37302 -8.73897
3 5.03526 -7.73151 8.54537
1 9.21779 0.79633 -8.81401
2 2.27424 7.64601 10.6887
2 -4.67486 5.58472 -9.94892
2 -5.55138 -1.45106 11.1632
2 5.25183 -6.20627 10.6447
2 8.12647 1.82185 -11.0411
3 9.4986 16.3359 -0.360653
3 -9.42535 16.4905 -0.145959
2 -18.702 0.323366 -0.276916
3 -9.28876 -16.0102 0.231603
1 9.3628 -15.785 -0.721831
1 9.42922 -5.48628 15.24
1 0.13207 10.2401 15.0239
3 -8.0961 -4.65132 13.3572
2 -0.0844323 -11.0028 -15.2397
1 -8.57657 4.58209 -14.6476
1 17.0283 2.17122 -0.233222
2 17.02 -1.01764 1.86897
3 17.2741 0.36228 -2.33611
2 6.71438 16.1281 -0.0842624
2 8.07555 15.3188 2.07814
1 -10.6012 14.2963 -0.009247
1 -9.31935 15.1533 4.12649
2 -17.6612 -2.20268 -0.123477
3 -17.0762 0.903019 -2.21069
3 -6.82513 -15.8674 0.112569
3 -9.20533 -14.512 2.32625
2 -8.17449 -15.3037 -1.96875
3 10.8322 -13.7436 -0.179169
1 9.39521 -14.5844 2.01094
1 7.16082 -14.9263 -2.34476
1 8.19462 -3.25262 15.1241
2 7.06111 -5.27826 15.9617
1 -1.34311 7.91519 14.9909
2 1.19783 -8.67132 -15.242
3 -1.33841 -8.33158 -15.0823
1 5.75061 3.11671 -15.4059
3 15.8839 4.56018 0.134765
2 15.9199 -1.42477 4.20707
1 3.72608 16.3787 0.0184854
2 6.66578 14.6514 4.09023
1 9.56871 13.147 -4.3436
2 -12.0539 12.0511 0.300953
1 -6.72489 14.8711 4.45295
2 -9.27566 13.4567 -2.53629
2 -16.0453 -4.46154 -0.374526
1 -15.678 1.62033 -4.3703
1 -4.11271 -16.0165 0.141588
2 -9.50997 -13.0487 4.57342
3 -6.8295 -14.6734 -4.30608
2 12.0929 -11.5679 0.00152014
3 6.46127 -15.3103 -4.91532
3 6.76786 -0.883137 15.4295
1 3.64415 -4.97839 15.5772
3 -2.72027 5.45869 14.9536
1 3.15374 -6.05953 -15.2237
2 -2.71433 -5.9804 -15.1577
1 1.27097 6.02523 -15.3608
2 14.4845 6.77267 0.0418879
1 14.3934 -2.25876 6.28657
1 14.602 2.02687 -6.62154
1 5.23775 13.9654 6.55877
2 9.32646 11.3084 -6.71327
3 -13.399 9.73362 0.106614
2 -5.25509 14.4798 6.97424
2 -9.05244 11.6589 -4.65329
2 -14.8631 -6.80187 -0.0678269
1 -14.3344 2.03086 -6.57571
3 -1.50289 -16.1565 0.17289
3 -5.43055 -13.6121 -6.18588
2 13.2785 -9.17212 0.147239
1 5.23478 -13.5956 -6.29245
2 5.3543 1.56433 15.2972
1 1.0028 -5.29763 15.2048
3 -3.89819 -3.74215 -15.274
1 -0.00733032 4.6069 -13.192
3 13.3167 9.07394 -0.157038
1 13.1126 -2.926 8.58788
3 13.3425 3.05923 -8.76587
3 -0.79742 16.7892 -0.43563
1 3.81405 13.1956 8.68158
2 -14.5229 7.09228 -0.14873
3 -3.91119 13.402 8.86508
3 -8.55856 9.72788 -6.5651
2 -13.5552 -9.13544 -0.0340591
2 -12.747 -3.05804 8.65494
3 1.59343 -16.0557 0.0618629
2 -9.44108 -11.3646 6.77575
1 14.8124 -6.88695 0.0965731
3 9.34925 -9.59282 9.36813
3 4.03407 -12.9667 -8.89158
2 3.67021 3.54035 15.0739
3 -1.73096 -5.49951 15.492
1 -3.61411 2.96869 14.4499
3 5.62654 -1.39166 -15.3297
3 -4.98897 -1.37637 -15.0989
1 -1.22267 4.97257 -15.8288
3 11.991 11.6632 -0.139273
1 12.0089 3.75463 -11.0665
1 -3.60764 16.4996 -0.0295574
3 2.54357 12.0359 10.7848
3 9.2633 8.44507 -10.8824
1 -15.9525 5.00867 -0.314642
2 -2.58153 12.4929 10.7607
2 -11.9946 -11.288 -0.0142702
2 4.33337 -16.4195 -0.0871488
2 -6.97884 -8.72097 10.9153
1 -2.79136 -12.4057 -10.706
2 14.264 -2.52064 -0.0297617
2 2.47447 -12.3735 -10.8074
3 2.64104 6.01999 14.8762
1 -4.19768 -5.7091 15.1296
1 -5.77438 0.10028 13.1665
3 7.04233 0.704835 -15.2299
1 -5.60729 0.450587 -13.1969
2 -2.72616 4.51082 -13.8839
3 10.8596 13.862 -0.244057
1 10.6397 -4.67577 12.6256
2 9.68078 2.39127 -13.1103
2 -6.70536 16.5377 0.0396085
3 1.57486 11.2438 12.9776
2 9.33693 4.13685 -10.904
1 -17.0596 2.63641 -0.407523
3 -1.13967 11.5196 13.0317
3 -9.58984 5.53676 -12.7209
2 -10.5642 -13.6497 0.205454
2 -9.5492 -4.17954 11.3355
2 -11.6395 4.13332 -11.8471
2 6.92827 -16.1121 0.118946
2 -8.12727 -6.39225 11.0879
2 -1.59776 -11.4013 -12.9148
3 16.7539 -2.59303 0.0189613
2 9.21222 -6.90806 12.8448
3 1.13848 -11.6338 -13.0214
3 1.31667 8.07652 14.9345
1 -6.05187 -3.82485 15.0449
3 8.29592 3.31603 -15.3229
1 -7.66319 1.70075 -14.7697
2 -4.85221 6.05627 -14.1306
1 5.38828 15.5123 2.00001
2 -16.3797 -2.79529 2.12595
2 -5.61998 -15.4472 -1.9893
3 10.3509 -12.171 2.18449
3 5.50369 -3.26618 15.5465
2 0.0365468 -5.99718 -15.2495
2 14.7499 3.54045 -4.18428
1 3.74773 14.8459 4.24758
3 -11.4419 11.9046 -3.62492
2 -16.3097 -1.5152 4.13906
3 -4.08273 -14.467 -3.97655
2 10.3825 -10.7034 4.45766
1 1.99143 -2.64119 15.0006
1 -1.20404 -3.84225 -15.5742
1 13.2315 4.51108 -6.33189
3 2.5474 13.9642 6.55005
1 -10.6605 9.6941 -5.17121
1 -12.4695 -3.72909 4.63108
1 -2.95411 -13.7305 -6.27627
1 9.65242 -9.85313 6.72804
2 -1.38673 -2.17961 14.3213
1 -2.26752 -1.55241 -15.6398
1 11.8875 5.27933 -8.88648
2 1.22686 13.1831 8.73418
3 -11.0651 8.80548 -7.74777
2 -1.39031 -13.1138 -8.44609
1 10.5294 -7.5 8.54345
2 -3.27329 -3.48997 16.0306
1 -2.98988 0.00206626 -13.7622
3 0.0350538 12.5522 11.0285
3 -8.23879 -7.61818 8.95887
2 -0.16098 -12.2189 -10.7894
2 10.5507 -6.19413 10.7065
2 -4.53776 -2.46557 13.4666
1 -4.06159 2.45018 -14.5675
2 15.8572 1.32209 1.7185
1 6.65899 14.7934 -2.25271
3 -9.35137 13.2675 2.11381
2 -15.9733 -1.3083 -2.02935
1 -6.71317 -14.4171 2.34691
1 9.12559 -13.2993 -2.17744
2 14.4426 0.837383 4.25293
1 6.76513 12.9799 -4.31513
2 -8.02668 12.6322 4.21008
2 -14.4702 -0.443248 -4.19743
1 -6.79877 -13.0299 4.54308
1 7.17872 -12.573 -4.1379
2 6.69375 11.4567 -6.5165
3 -6.50326 12.0469 6.50187
2 6.50663 -11.5505 -6.46013
3 11.5543 -0.730449 8.639
3 6.4233 9.87048 -8.6108
2 -5.17696 11.0925 8.58942
2 -12.0513 0.781729 -8.84273
2 -4.2765 -10.0579 8.86541
1 5.34102 -10.6718 -8.62308
2 10.3536 -1.41719 10.8091
2 6.54006 8.5885 -10.8011
2 -4.02434 10.2281 10.9078
1 -10.685 1.79603 -10.7949
2 4.01605 -10.1268 -10.8271
3 9.37345 -2.36842 13.108
2 5.21906 6.08269 -11.0754
1 -2.1914 9.15892 12.7465
1 -9.36181 2.92059 -12.869
3 -5.33993 -5.0519 13.0532
2 2.44858 -9.23281 -12.9732
2 14.6073 5.21078 -2.13215
3 2.64069 15.4739 2.19722
2 -9.83232 10.0051 -2.60288
2 -15.197 -5.10727 2.27326
2 -2.72021 -15.4288 -2.01252
1 11.7836 -9.99887 2.06306
2 4.15487 -1.27509 15.113
1 1.5594 -3.90197 -15.2024
2 13.3168 6.13516 -4.32515
3 1.19888 14.7527 4.15786
2 -12.3485 8.8332 -2.27261
2 -13.7507 -5.9901 4.33177
1 -1.2538 -14.5667 -4.11128
2 11.7984 -8.25407 4.265
2 0.303859 -1.56446 -15.1919
1 11.9717 6.83966 -6.76784
1 -0.0155764 14.024 6.48292
3 -9.57764 -6.91986 6.61908
2 11.6316 -6.93526 6.39946
3 -2.77683 -0.766913 15.9794
3 -1.03726 0.741697 -15.3818
3 10.5514 7.63415 -8.75296
1 -1.31887 13.2207 8.7389
3 -12.0997 4.97294 -9.66698
1 -8.12488 -9.10771 6.64915
2 1.43736 -12.8611 -8.5657
2 11.651 -5.2701 8.6574
3 -3.2034 -0.31813 13.6226
2 -1.51394 2.4629 -13.4379
1 14.5912 3.82237 2.09719
2 3.82158 14.8134 -2.10382
2 -10.5822 11.1464 2.22886
1 -15.214 -3.45125 -2.63408
2 -4.18133 -14.5594 2.37553
2 10.42 -10.8467 -2.0088
3 13.0323 3.11605 4.35009
3 -9.36753 10.2974 4.33913
3 -3.99695 -13.0663 4.6015
2 9.34411 -10.0049 -4.23783
2 11.498 2.4236 6.42757
3 3.96219 11.2315 -6.68453
2 -7.80616 9.53771 6.3475
2 -4.26542 -11.5313 6.67837
3 7.83596 -9.37402 -6.38728
2 10.1468 1.72466 8.55827
3 3.73636 9.73196 -8.57511
1 -6.50127 10.0921 10.7195
2 -10.5054 -1.53543 -8.81014
2 3.97023 8.46671 -10.7215
1 -5.09119 7.92183 10.74
3 -9.16272 -0.38979 -10.6937
3 -4.34608 -8.72417 10.9522
2 5.36835 -7.51813 -10.9358
2 8.08035 -0.0240944 13.1346
2 3.92921 7.149 -13.3088
2 -8.31087 0.144287 -12.9789
2 -4.17396 -7.41999 13.1104
2 4.11098 -7.00066 -13.1966
3 13.4524 7.5123 -2.17433
2 0.0645455 15.7 2.12327
2 -13.6759 -7.51701 2.19029
1 0.261101 -15.2701 -2.0745
3 13.1675 -7.62076 2.12437
1 2.66547 1.20087 15.258
3 2.92528 -1.48435 -15.2253
3 -12.2458 6.82733 -4.99317
2 -12.2984 -8.45917 4.35728
2 1.31213 -14.4324 -4.60307
2 1.63946 0.598345 -15.4025
1 10.4815 9.09072 -6.62228
2 -13.1161 3.9326 -7.47747
3 -10.7777 -9.27237 6.38026
1 13.1572 -4.4745 6.32825
3 -3.07421 1.91885 16.7826
2 0.31932 0.184287 -13.0899
3 13.2435 6.10813 2.31106
2 1.23313 14.9871 -2.22302
3 -12.0235 8.95785 2.12636
2 -13.4538 -5.93092 -2.21451
3 -1.43398 -14.5868 2.22042
3 11.8347 -8.66766 -2.01582
2 11.6549 5.39465 4.38213
3 -10.4498 8.07445 4.34166
2 -12.0776 -5.31795 -4.2451
2 -1.39378 -13.0351 4.58409
1 10.4101 -7.71822 -4.19662
2 0.0191354 10.8025 -4.61439
2 -8.86941 7.0225 6.51372
3 -10.4563 -4.46206 -6.52948
2 -1.59201 -11.6393 6.77859
1 9.10331 3.931 8.67778
3 1.28468 9.96077 -8.50591
2 -7.62637 6.3377 8.67848
1 -9.41 -3.7436 -8.85175