3598
 Atoms. Timestep: 6000
2 0.106478 -0.183268 -0.265783
3 2.59172 -0.168152 0.00267193
2 1.22152 2.02274 0.0257512
2 -1.28257 2.21577 -0.272262
1 -2.61472 0.0504658 -0.259934
3 -1.24668 -2.41806 0.0664968
2 1.3869 -2.42062 -0.182147
2 1.3685 -0.644153 2.19128
2 -1.53068 -0.896265 2.26905
1 1.35316 0.74025 -2.3896
3 -1.40163 0.899949 -2.37174
1 5.30371 0.0345599 -0.165412
1 2.77956 4.55576 0.0582961
3 -2.64559 4.54106 -0.0930907
2 -2.55815 -4.72291 0.0576569
3 2.66144 -4.66547 -0.116505
2 2.68292 -1.48825 4.48672
2 0.101989 3.06348 4.5012
2 0.0270916 -3.08607 -4.45821
3 2.73482 1.5832 -4.41465
3 -2.86972 1.65536 -4.48757
1 3.99464 2.13684 0.0239438
2 4.07708 -0.730158 2.13957
3 3.90895 0.892869 -2.29544
1 0.116188 4.3538 -0.118243
1 1.33593 3.81012 2.35708
2 2.60981 3.10008 -2.30116
1 -4.20002 2.41579 -0.147893
2 -1.26139 3.71427 2.03558
1 -2.5554 3.18595 -2.3847
1 -4.0111 -2.44584 -0.0311902
1 -4.05925 -0.935007 2.19132
1 -4.04884 0.865983 -2.49293
3 0.030868 -4.54112 0.0479574
2 -2.84788 -3.18622 2.24254
2 -1.29068 -3.75671 -2.14721
3 4.01122 -2.44479 -0.150441
2 2.71305 -3.06959 2.17591
2 1.33597 -4.12182 -2.27641
2 -0.0737168 -1.35014 4.44581
1 0.165835 1.41321 2.70489
2 1.39382 -0.514793 -4.53496
1 -1.43156 -0.728193 -4.51621
3 2.7471 1.56526 2.12717
3 -0.116361 3.05383 -2.2933
1 -2.67365 1.36206 2.12603
3 -2.69248 -1.61525 -2.28712
2 -0.071091 -3.17494 2.19811
2 7.99174 -0.0277436 -0.182729
1 -3.81028 6.89885 0.0310362
1 -7.91957 -0.027463 -0.11998
1 -3.85741 -6.98611 -0.00167466
3 3.89955 -6.9791 0.113408
2 -0.0250261 4.69223 6.71345
2 -4.31524 -2.47784 6.61927
3 0.228941 -4.59649 -6.49454
3 -4.13587 2.44815 -6.49777
1 6.68849 -0.793162 2.10332
3 6.62825 0.724519 -2.45019
3 1.156 6.78477 -0.0850064
1 2.63247 6.07012 2.28592
3 3.99493 5.19019 -2.3431
1 -5.44963 4.69683 -0.078641
3 -2.58015 6.20807 2.12216
1 -4.08202 5.40599 -2.31958
3 -6.83067 -2.39172 -0.0696601
1 -6.70668 -0.796869 2.16567
1 -6.64816 0.863761 -2.21065
1 -1.06381 -6.86909 -0.0753841
3 -3.90077 -5.4386 2.31075
1 -2.734 -6.29293 -2.22623
2 5.33228 -4.73971 -0.182228
2 4.11406 -5.45196 2.08677
3 2.71925 -6.25244 -2.18991
2 -1.30345 2.16568 6.59826
3 1.3008 -2.15464 -6.642
2 -1.41438 -2.16681 -6.4928
3 1.25226 2.4573 -6.55732
1 5.34669 4.57519 0.000732717
2 5.41282 -1.35906 4.35221
3 5.48926 1.50619 -4.35291
2 -1.27531 6.8365 -0.143884
3 1.28189 5.39865 4.56943
1 4.04002 3.82096 -4.46602
2 -6.76158 2.27662 -0.0757946
2 -1.2834 5.31363 4.31454
2 -3.67165 4.01231 -4.50824
3 -5.28567 -4.65818 0.057395
2 -5.50334 -1.493 4.38268
1 -5.30461 1.48 -4.47696
2 1.36135 -7.03262 0.00424892
2 -4.09787 -4.01702 4.39746
1 -1.34498 -5.34331 -4.36904
1 6.70189 -2.39516 0.0162883
2 3.97788 -3.70825 4.48077
1 1.43368 -5.47007 -4.29977
1 1.59517 1.97582 6.17069
1 -1.52289 -2.39488 6.54495
2 -2.83599 -0.00121316 6.53934
2 1.33782 0.793375 -8.63947
2 -2.78819 0.204938 -6.69249
1 5.45594 3.08793 -2.16826
2 0.0811506 6.02821 2.12062
2 -5.47123 -3.02686 1.9946
2 5.37049 -3.17969 1.97807
2 -0.119522 -0.131013 6.67346
2 -0.126011 0.202521 -6.39921
1 5.49778 1.62569 2.17732
3 1.33426 5.32866 -2.16281
2 -3.98946 3.67709 2.05891
1 -5.3008 -1.53348 -2.22968
1 -1.29819 -5.61242 2.31993
1 4.05165 -3.87564 -2.28903
1 3.89257 0.767088 4.63804
2 1.15804 3.84556 -4.40808
2 -2.65997 2.93185 4.21291
2 -1.51129 -3.99977 4.35432
1 2.69389 -2.86622 -4.37162
3 4.05293 3.82287 2.10279
2 -1.32669 5.29301 -2.36654
3 -5.30134 1.30274 2.09033
2 -4.10073 -3.83275 -2.12903
1 1.42853 -5.50419 2.18828
2 5.41591 -1.53082 -2.24967
1 -1.23659 3.5622 -4.73604
1 -3.97404 0.659154 4.44366
2 -2.7131 -3.16532 -4.38436
2 1.32167 -3.72861 4.37939
1 4.02185 -0.653039 -4.42643
2 10.8365 -0.133616 -0.151655
3 5.43621 9.14842 -0.014199
1 -5.64342 9.28824 -0.100052
2 -10.6683 -0.286329 -0.242945
1 -5.19752 -9.28609 -0.0508
1 5.23221 -9.39346 0.108595
1 5.27066 -3.14878 8.82244
2 -0.0694562 6.26777 8.95784
2 -5.49675 -2.89239 8.83497
2 -0.19181 -6.12571 -8.79834
3 5.5476 3.17185 -8.64168
3 9.5344 2.06449 -0.210485
2 9.26681 -0.849478 2.02061
2 9.404 0.611149 -2.35666
1 2.63336 9.33779 -0.102582
1 3.87271 8.49784 2.39517
2 5.44081 7.70196 -2.15786
2 -6.79846 6.78589 0.0408808
1 -3.90882 8.48206 2.1591
1 -5.31085 7.78799 -2.43352
1 -9.42351 -2.41289 0.0307628
2 -9.35691 -0.795833 2.00758
1 -9.27381 0.848748 -2.3835
3 -2.55893 -9.19339 0.0111566
2 -5.35917 -7.64911 2.2101
1 6.71568 -6.97346 0.0615117
3 5.42183 -7.66729 2.32819
2 3.92783 -8.57438 -2.10256
2 3.97458 -0.602504 8.95255
3 2.5975 -2.89314 8.91595
2 -1.3948 3.93228 9.09756
2 1.31421 -3.71454 -8.84762
1 -1.31465 -3.6648 -8.70586
2 2.91118 3.14753 -8.46497
1 8.05427 -1.7621 4.38432
3 8.03529 1.44061 -4.45271
2 0.133631 9.16027 -0.0405962
1 2.68933 7.73201 4.52228
2 5.39312 6.12523 -4.33652
3 -8.11469 4.59577 0.0450704
3 -5.26887 6.38098 -4.56904
3 -7.99426 -4.70212 -0.082481
3 -8.10787 -1.5038 4.36968
3 0.146541 -9.21099 0.047347
2 -5.41155 -6.20219 4.57266
1 -2.53409 -7.79018 -4.34776
2 8.24229 -4.54794 -0.103813
2 5.52719 -6.20853 4.35007
2 2.84913 -7.68165 -4.33363
2 2.57721 1.67565 8.83479
1 -2.68105 1.59075 8.93417
3 0.154222 3.23126 -8.65831
2 6.66417 6.86699 -0.109799
1 6.61148 -2.39959 6.55806
3 6.7959 2.25993 -6.57752
2 -2.66333 9.26379 -0.0863616
1 1.4719 6.96726 6.82945
2 5.59011 4.64227 -6.67631
2 -9.36816 2.27175 -0.0357104
2 -1.25741 6.99877 6.45441
2 -6.83316 -6.90094 -0.0710855
3 -6.87789 -2.33617 6.56179
1 -6.78602 2.19933 -6.37116
3 2.6236 -9.27786 0.055864
3 -5.42949 -4.64123 6.76785
3 -1.2302 -6.84983 -6.52185
3 5.37611 -4.61647 6.50636
1 1.2986 -6.8814 -6.59807
3 1.17534 3.96583 8.84872
2 -2.57744 -2.92596 8.79949
3 -4.00436 -0.868057 8.74812
1 3.97595 0.247717 -8.34336
1 -2.66413 3.08879 -8.78897
3 8.19366 2.96658 -2.34294
2 1.51695 8.50517 2.06503
3 -6.72902 5.34765 -2.15635
2 -8.22491 -3.22898 2.00244
3 -1.29189 -8.55331 -2.10342
1 6.75457 -5.2934 2.15025
1 1.38619 -0.654656 8.42849
3 0.0206214 -1.36703 -8.46291
2 6.82928 3.6651 -4.413
2 0.0455813 7.7037 4.24188
2 -6.78378 -3.85597 4.39488
2 -0.0739699 -7.78314 -4.18806
3 6.54683 -3.77601 4.19558
1 -1.28089 -0.788527 8.67895
2 -1.26299 1.07074 -8.78464
3 8.18277 1.32454 2.17479
3 2.78429 7.69838 -2.34663
3 -5.24484 6.15684 2.07265
2 -2.684 -7.81572 2.37085
1 5.32353 -6.18412 -2.21723
3 6.79543 0.726083 4.42238
2 2.59953 6.14711 -4.39354
2 -3.99863 5.22107 4.18348
3 -6.59875 -0.781197 -4.45265
3 -2.71809 -6.20045 4.60429
2 4.08411 -5.41282 -4.33929
3 5.39181 0.178874 6.67474
1 2.65954 4.77247 -6.6051
2 -2.58363 4.48155 6.57547
3 -5.49393 -0.0391867 -6.6633
2 -2.76658 -4.57706 6.64696
2 2.83819 -4.36093 -6.63384
1 6.72768 5.37128 -2.05521
2 -1.25002 8.58552 2.14245
1 -8.06019 3.17735 -2.16062
2 -6.73192 -5.32911 2.00039
2 1.3501 -8.45015 -2.20955
1 8.15372 -3.15252 2.13134
1 0.0468717 1.74802 8.95133
2 6.7532 3.8945 2.37942
3 0.152574 7.70672 -2.13002
2 -6.70264 3.86809 2.13195
3 -6.87402 -3.95642 -2.23746
1 -0.178726 -8.06284 2.32743
3 6.8069 -3.9605 -2.19874
2 5.19707 2.90977 4.37307
1 0.00577129 6.27967 -4.47616
3 -5.38664 3.0443 4.16031
3 -5.47465 -3.24929 -4.45085
2 0.0792231 -6.18349 4.52839
1 5.44237 -3.007 -4.41357
1 4.25487 2.52635 6.62804
2 0.0189717 4.67527 -6.60865
3 -3.89272 2.30363 6.63417
2 -3.96352 -2.28045 -6.49554
2 -0.128375 -4.52534 6.57458
1 3.84064 -1.9021 -6.61062
2 5.42155 6.15578 2.11065
1 -2.63369 7.73011 -2.35014
1 -5.42875 -6.14634 -2.07001
2 2.63102 -7.78637 2.28765
2 8.06231 -1.7085 -2.28188
3 3.87721 5.35826 4.41181
3 -2.69619 6.36572 -4.47623
3 -6.66833 0.815427 4.18163
3 -3.9361 -5.49914 -4.20108
2 2.7454 -6.22656 4.34888
2 6.81633 -0.758532 -4.43066
1 2.71188 4.65492 6.7277
3 -2.49205 4.83596 -6.75652
3 -5.41118 -0.0332825 6.41029
2 -2.54017 -4.7007 -6.66943
1 2.55147 -4.38954 6.5218
1 13.5411 -0.0672932 -0.0693764
1 6.73483 11.3987 0.0474952
2 -13.4156 -0.191674 0.030133
2 6.71221 -11.7137 -0.0381024
1 6.89427 -3.69678 11.0411
2 -6.84871 -3.74512 10.84
3 -0.0631392 -7.59558 -10.8793
3 6.72332 3.89021 -10.961
3 -6.62636 3.85159 -10.876
2 12.0489 2.20117 -0.243936
1 12.3235 -1.06047 2.11155
2 3.93981 11.4718 0.143649
2 5.31547 10.6775 2.2047
1 6.65852 10.0349 -2.19214
1 -8.20375 9.24089 -0.00563097
3 -5.20854 10.8651 2.19105
2 -6.71526 10.2573 -2.11793
3 -12.0315 -2.42918 0.0462037
1 -12.0466 -0.848572 2.20617
3 -12.09 0.680257 -2.13993
2 -3.78691 -11.6632 0.14506
1 -6.69976 -10.1112 2.169
1 -5.59859 -10.7163 -2.37697
2 8.05605 -9.25787 0.0830625
2 6.86108 -10.0401 2.22816
2 5.47681 -10.8865 -2.26422
3 5.35881 -1.46645 10.9443
2 4.12411 -3.65732 10.943
2 -2.53048 2.9262 11.8489
2 1.43384 -5.27258 -10.892
2 -1.54424 -5.32401 -10.8624
1 4.18985 3.94731 -10.7229
3 10.7734 4.3782 -0.141143
2 10.7291 -1.84122 4.29531
3 10.7023 1.36314 -4.46894
3 1.22591 11.4969 0.141659
2 4.02583 10.0505 4.51119
2 6.87275 8.39279 -4.23859
3 -9.31214 6.95485 0.045408
1 -4.04499 9.98169 4.40436
1 -3.98444 8.70891 -4.66164
3 -10.7268 -4.68489 0.0624638
2 -10.7194 -1.36838 4.54137
2 -10.5862 1.46506 -4.31761
2 -6.73012 -8.26822 4.86498
2 -3.94678 -10.0604 -4.43074
2 9.20291 -7.00227 0.0671189
3 6.85784 -8.52649 4.29752
3 4.06622 -9.95203 -4.26116
2 4.10995 1.02428 10.94
2 1.34953 -3.76442 11.0247
2 3.0882 -2.87965 -10.8596
2 1.5359 3.82663 -10.7494
3 9.32952 6.64808 -0.246629
2 9.47457 -2.42233 6.5029
2 9.36338 2.30503 -6.71378
1 -1.2277 11.6253 -0.0615333
3 2.64355 9.36034 6.51108
2 6.8542 6.79169 -6.61027
1 -6.71796 6.7992 -6.72882
2 -9.48305 -6.98611 -0.178374
3 -9.50159 -2.17344 6.5715
2 -9.35184 2.15499 -6.78318
3 1.27831 -11.6202 0.164501
3 -6.73968 -6.78425 6.7552
2 -2.67297 -9.29265 -6.45759
2 10.9663 -4.86008 -0.21346
2 6.6875 -6.91262 6.59136
1 2.8584 -9.23884 -6.44587
3 2.5943 3.27335 10.9086
3 -1.35566 -3.71822 11.1253
1 -4.01073 0.666922 11.0695
3 4.36854 -0.617528 -10.8704
2 -3.9272 -0.732475 -10.8739
2 -1.20978 3.92651 -10.821
2 8.10987 9.04764 0.15581
2 8.16167 -3.00928 8.71688
3 7.85875 3.15477 -8.94418
3 -4.10345 11.5558 -0.107559
2 1.34549 8.5245 8.8537
3 6.65709 5.44916 -8.97919
2 -11.9853 2.34045 -0.145703
1 -2.54268 9.1705 6.40235
1 -6.41633 4.84279 -8.61354
2 -8.09143 -9.40685 0.0425209
1 -8.18532 -3.24622 8.69391
3 -8.00718 3.04369 -8.65412
2 3.83082 -11.6902 -0.0120855
3 -6.77298 -5.40177 8.74775
2 -1.42119 -8.40101 -8.70506
3 12.1464 -2.43391 -0.191962
1 6.71242 -5.43549 8.7427
2 1.41372 -8.53979 -8.81735
2 1.2187 5.4317 10.882
1 -4.07265 -3.75763 11.1573
3 -5.41078 -1.54741 11.0749
3 5.50126 1.65331 -10.9275
3 -5.39605 1.51071 -10.8262
2 -4.08344 3.87045 -11.0082
3 10.5194 3.05158 -2.28875
3 2.70837 10.9347 2.47397
2 -7.96431 7.73027 -2.14999
2 -10.6837 -3.21549 2.39475
1 -3.00325 -10.6611 -2.23848
2 8.42496 -7.80018 2.5282
2 2.71663 -1.30435 10.9765
1 0.0986992 -2.92754 -10.8324
2 1.07795 9.90516 4.48475
2 -7.86962 6.00983 -4.31925
3 -9.28844 -3.80146 4.69108
2 -1.34366 -10.2544 -4.17667
3 8.10325 -6.00154 4.31421
2 0.0998222 -1.38942 10.9741
2 -1.12669 -0.649235 -10.7613
2 8.11551 4.64254 -6.80519
3 0.0226129 9.18228 6.75161
1 -7.89207 4.50444 -6.4533
1 0.0479511 -9.17277 -6.28556
3 8.03456 -4.56158 6.34564
2 -2.72275 -1.48661 11.084
1 -2.58258 1.50286 -10.9178
1 10.7584 1.22578 1.96502
2 3.94029 10.1208 -2.15549
2 -6.61372 8.46107 2.29451
3 -10.5525 -1.5949 -2.45397
2 -4.11229 -10.1362 2.16052
1 6.59982 -8.50445 -2.10479
1 9.40174 0.552811 4.35573
2 3.88633 8.56802 -4.52884
1 -5.13547 7.57816 4.30515
2 -9.03928 -0.790647 -4.43286
2 -4.05816 -8.43394 4.45584
2 5.49667 -7.778 -4.31145
1 8.07268 -0.139747 6.50132
1 3.81963 7.29726 -7.0657
3 -3.79705 6.84396 6.2457
1 -8.0377 -0.14274 -6.62179
2 -3.94197 -6.79781 6.87637
2 4.2559 -6.87577 -6.51445
3 6.6042 -0.886276 8.76919
2 4.18068 5.4349 -8.52383
1 -6.62668 0.737521 -8.66155
3 -4.08707 -5.14817 8.92892
2 2.80711 -6.15486 -8.64975
3 9.54472 5.28989 -2.23661
1 0.0579565 10.913 2.23346
2 -9.24809 5.45904 -2.0934
3 -9.31813 -5.48419 2.1202
2 -0.129154 -10.965 -1.93811
1 9.4407 -5.41187 2.04887
3 1.36511 0.79229 11.0332
1 1.60137 -0.723249 -10.69
2 8.02608 6.02431 -4.51139
1 -6.43353 3.92541 -4.17948
2 -8.07107 -6.09016 4.39621
3 9.54841 -4.05997 4.43141
3 -1.465 0.673206 11.026
3 0.267989 1.53646 -10.845
1 9.22633 3.66818 1.92119
3 1.37451 10.1274 -2.28432
2 -8.06696 6.17549 2.16118
3 -9.40231 -4.09072 -2.15809
1 8.1684 -6.20329 -2.30308
1 8.07324 2.97186 4.40082
2 -6.49151 5.39937 4.27218
3 -7.86709 -3.08578 -4.44348
2 -1.23317 -8.48251 4.55605
3 6.81356 -5.38783 -4.34294
2 6.84996 2.18127 6.57742
1 1.34998 7.16785 -6.64285
1 -5.39999 4.57992 6.45955
2 -6.70559 -2.36173 -6.45292
1 -1.32838 -6.86665 6.64638
2 5.41033 -4.4716 -6.60157
2 5.42031 1.56875 8.793
3 -3.95855 3.94359 8.69088
1 -5.23246 -1.57862 -8.63028
3 -1.39977 -5.27548 8.94125
2 4.09369 -3.46135 -8.79659
2 8.11465 7.6837 -2.17066
2 -2.66395 10.871 2.0711
1 -7.78525 -7.69669 2.3317
3 2.57866 -10.8374 -1.87071
1 10.8399 -3.24564 2.0374
3 0.110089 3.01986 11.1579
1 2.86547 1.60954 -10.4147
1 8.06298 5.99508 1.8704
2 -1.2429 10.1087 -2.36246
2 -9.44624 3.75633 2.2276
2 -8.0976 -6.29443 -2.4361
3 1.38181 -10.0667 2.37733
1 9.48186 -3.84744 -2.25618
2 6.59834 5.38293 4.5043
1 -1.25909 8.715 -4.44437
2 -7.97452 3.11464 4.25694
3 -6.54701 -5.39542 -4.25656
1 1.42104 -8.51079 4.57382
2 8.08552 -3.2699 -4.46945
2 -1.37982 7.1429 -6.64929
2 -6.58185 2.24948 6.31883
2 1.4141 -6.94339 6.64033
1 5.63644 0.0801515 -6.51957
1 3.92261 3.88378 8.8156
1 -1.11123 5.64392 -8.69069
1 -5.23756 1.50597 8.84289
2 -3.87533 -3.80655 -8.69239
2 1.25273 -5.23715 8.65464
2 -3.9897 10.0237 -2.21198
3 -10.7363 1.37116 2.09115
3 -6.83241 -8.45995 -2.10654
2 3.97992 -10.009 2.13551
3 10.8237 -1.72481 -2.44042
2 5.43765 7.57508 4.55182
2 -9.37138 0.852697 4.33001
3 -5.2117 -7.8045 -4.23186
3 4.10831 -8.32216 4.2415
3 9.35063 -1.1531 -4.31217
3 4.06607 6.83323 6.60649
2 -4.09065 6.74592 -6.64524
3 -8.13252 -0.00309603 6.41389
3 -3.95013 -7.13441 -6.43642
2 4.13914 -7.06007 6.57146
3 -4.00626 5.35489 -8.80199
1 -6.81558 -0.782106 8.79356
3 -2.78565 -6.14128 -8.60303
2 4.04231 -5.42693 8.73276
2 6.45306 0.736425 -8.61453
2 16.2081 -0.155256 0.0942865
1 -7.91804 13.6819 -0.00886292
1 -16.0217 -0.124703 0.0728903
1 -7.91314 -14.0037 -0.0266237
1 8.09661 -14.1145 -0.112192
1 8.10992 -4.56848 13.3182
3 0.294753 9.09703 12.8168
1 -8.01534 -4.51678 13.0596
1 -0.0617022 -9.17273 -13.0525
1 8.18002 4.70878 -13.1865
3 14.7017 2.27633 0.0535907
2 14.8401 0.75969 -2.11459
2 5.33656 13.8165 -0.0185091
3 6.57411 13.0385 2.14523
3 8.07516 12.3873 -2.24167
1 -9.30641 11.6203 0.279661
2 -6.65409 12.9784 2.25167
2 -14.7357 -2.45242 0.0786531
3 -14.8243 -1.03044 2.16808
2 -14.7032 0.645098 -2.1027
1 -5.14841 -13.7841 0.0844111
2 -7.79716 -12.3017 2.11826
1 -6.58336 -13.2505 -2.09909
1 9.52888 -11.7303 0.00462437
2 8.12002 -12.6331 2.31446
2 6.49308 -13.4088 -2.23146
2 6.76392 -2.18042 13.222
2 5.47849 -4.58012 13.2354
1 -0.607467 7.54376 10.9698
1 1.40161 -6.96699 -12.8351
1 -1.36423 -6.89168 -13.0729
1 5.45448 4.68587 -12.9356
3 13.5195 4.49354 0.0848857
3 13.5575 -1.71145 4.34727
1 13.4444 1.70826 -4.10686
1 2.66013 14.154 -0.0437544
1 5.37885 12.2544 4.38409
1 7.97891 10.6544 -4.34457
2 -10.9808 9.06795 0.0454188
1 -5.20126 12.4074 4.36194
2 -8.08639 10.9099 -4.28446
2 -13.3576 -4.73493 -0.242538
2 -13.5673 -1.34427 4.49756
2 -13.4542 1.58599 -4.26117
3 -2.41679 -14.0555 0.221427
2 -7.83025 -10.7364 4.34337
1 -5.27624 -12.4436 -4.21687
3 10.7416 -9.27324 -0.115723
2 8.11051 -10.8075 4.36959
2 5.30168 -12.3522 -4.43927
3 5.61883 0.0400209 13.0241
1 2.67732 -4.57851 13.0499
1 2.7448 -4.47107 -12.99
3 -2.59726 -4.57399 -13.0835
2 2.61035 4.7276 -13.1805
1 12.0639 6.73511 -0.00304
1 12.0453 -2.49352 6.4899
2 12.2182 2.38039 -6.57609
3 0.0651978 13.9776 -0.0614418
3 4.0959 11.5358 6.69472
2 8.17532 9.27916 -6.59753
2 -3.82949 11.2835 6.47909
1 -7.86258 9.16503 -6.56708
3 -12.0928 -7.17736 0.0536747
1 -12.1958 -2.2913 6.69018
2 -11.9884 2.18557 -6.52918
2 0.124476 -13.9654 0.240114
2 -3.93138 -11.715 -6.57554
2 8.10364 -9.33687 6.59068
3 4.07649 -11.4232 -6.36134
1 4.16802 2.50934 13.0349
3 0.0669987 -4.41313 13.2844
1 4.11713 -2.31625 -13.0087
2 -3.90424 -2.20349 -13.2393
2 -0.0143005 4.6946 -13.2007
1 10.6297 9.01593 -0.0396986
3 10.7382 -3.31986 8.73755
2 10.4995 3.10603 -8.82218
2 -2.5778 13.8625 0.0214849
3 2.80619 10.702 8.69193
2 8.06025 7.65767 -8.85774
1 -13.4233 4.42928 -0.357487
3 -2.63099 10.6926 8.57046
2 -8.08847 7.81313 -8.71748
2 -10.768 -9.34654 -0.00540671
3 -10.766 -3.02689 8.83184
3 -10.5973 3.10838 -8.67077
1 2.66675 -14.174 0.0345833
1 -7.99435 -7.6111 8.87189
2 -2.55192 -10.8723 -8.74983
2 13.494 -4.85473 -0.0357987
1 8.03744 -7.76529 8.86367
3 2.6366 -10.7223 -8.77941
2 2.58378 4.63424 13.122
1 -2.42819 -4.75358 13.2366
2 -5.14687 0.0292588 13.1499
2 5.41877 0.0141391 -13.0355
3 -5.25112 -0.049874 -12.991
2 -2.85193 4.71284 -13.2552
2 9.38165 11.4391 -0.130224
2 9.47369 -3.8277 10.9017
2 9.31243 3.94419 -11.0453
2 -5.33853 13.8796 -0.0500373
3 1.48268 10.2446 10.7286
2 -14.7852 2.209 -0.013364
2 -1.16475 9.94183 10.705
1 -8.01249 6.22436 -11.0638
1 -9.34533 -11.5478 0.0635877
2 -9.49784 -3.76812 10.8891
3 -9.21961 3.64894 -10.7914
2 5.36601 -13.8518 0.116777
3 -8.13933 -6.02905 10.9068
3 -1.31645 -10.0007 -10.8612
2 14.6697 -2.44302 -0.348061
3 8.08773 -5.97193 11.1219
2 1.30603 -10.0318 -11.0302
2 -5.33012 -4.53072 13.263
2 -6.80568 -2.23944 13.2175
2 6.91003 2.41456 -12.9317
1 -6.63879 2.23549 -13.0287
1 -5.61888 4.59796 -13.1709
1 3.9746 13.1897 2.03306
2 -9.43511 10.0731 -2.16271
2 -13.4158 -3.32217 2.36269
2 -4.02641 -13.011 -2.10762
2 9.5701 -10.1783 1.99077
1 4.13004 -2.30849 13.2035
3 0.0102319 -4.51682 -13.0021
2 11.9983 3.68711 -4.46095
1 2.76835 12.3326 4.39769
2 -9.51234 8.51524 -4.24033
2 -11.8402 -3.81914 4.53298
3 -2.69893 -12.3959 -4.28565
2 1.19792 -2.09098 13.3713
2 -1.35263 -2.32349 -12.8706
2 10.7185 4.74525 -6.7255
3 1.60444 11.4118 6.66673
1 -9.27059 6.85965 -6.60669
2 -10.675 -4.59083 6.75194
2 -1.29717 -11.7918 -6.43008
2 9.27115 -6.96718 6.49218
1 -1.45556 -2.02438 13.3546
2 -2.63006 0.116528 -12.9999
3 9.35085 5.31149 -8.98089
2 0.110176 10.7505 8.66835
2 -9.16689 5.35948 -8.83895
3 -9.33345 -5.38464 8.88244
1 -0.027641 -10.8321 -8.65244
1 9.41461 -5.42767 8.56789
2 -4.03741 -2.19806 13.27
3 -4.07017 2.37954 -13.0927
2 13.3335 1.51918 2.13903
1 5.30431 12.4214 -2.27823
1 -7.90273 10.7512 2.25564
2 -13.2009 -1.58416 -2.125
3 -5.19847 -12.4024 2.52273
1 8.03669 -10.7429 -2.21474
1 12.0561 0.480222 4.24871
1 5.16244 10.896 -4.36394
3 -6.59662 9.93012 4.33652
2 -11.9282 -0.908171 -4.4523
2 6.77931 -10.1339 -4.31181
3 10.7606 -0.147098 6.5026
1 5.18954 9.46405 -6.71675
1 -5.0875 9.0233 6.64553
3 -10.6741 -0.129252 -6.56463
3 -5.20492 -9.08503 6.77283
3 5.41278 -9.25302 -6.39933
1 9.45779 -1.07184 8.62321
2 5.37545 7.82948 -8.81214
2 -5.2338 -7.50012 8.90779
1 4.14693 -8.30248 -8.80015
3 5.35885 6.26412 -10.8769
2 -3.39849 5.55325 10.7606
3 -7.96922 1.62287 -10.8108
3 -5.47814 -6.01458 11.1953
2 12.2308 4.97902 -2.14367
2 1.5018 13.236 2.06648
3 -10.7697 7.70941 -2.04883
1 -11.9508 -5.62569 2.21557
2 -1.37662 -13.1819 -1.8759
2 3.01255 0.0405896 13.1364
1 1.39916 -2.16413 -13.0199
2 10.7014 6.1085 -4.48915
2 -0.0638473 12.3914 4.43607
2 -10.5669 6.08981 -4.30707
2 -0.0490685 -12.4034 -4.11958
2 10.7449 -6.24882 4.21196
3 0.0567616 0.283439 13.1878
1 -0.0194091 0.0355115 -13.0303
3 9.49213 6.93691 -6.57028
3 -1.24383 11.4262 6.56826
2 -10.4804 4.66303 -6.6401
2 -9.31204 -6.78423 6.7671
2 1.51725 -11.4247 -6.46781
3 10.809 -4.83108 6.51078
1 -1.18295 2.5437 -13.0743
2 12.0859 3.85769 2.1793
2 2.71043 12.4826 -1.84957
3 -9.34223 8.47005 2.24839
3 -12.0192 -3.8757 -2.22721
2 -2.59109 -12.2585 2.36285
1 9.35993 -8.49803 -2.10144
1 10.7174 2.93929 4.22026
3 2.62831 10.7714 -4.40981
2 -8.08182 7.58042 4.43805
2 -2.63622 -10.7436 4.45114
3 8.20359 -7.82891 -4.32448
3 9.38839 2.27844 6.53874
2 2.64561 9.53367 -6.66638
2 -6.44336 6.87046 6.75571
3 -2.72975 -9.13105 6.71324
1 6.86933 -6.92371 -6.48392
1 8.14704 1.48765 8.77545
1 -5.01358 6.23931 8.61403
3 -2.56644 -7.46703 9.09702
2 5.74557 -5.82039 -8.85986
2 6.76751 0.877391 10.8878
2 2.77591 6.36878 -10.8735
2 -6.52388 -0.812803 -10.7751
2 -2.79693 -5.84072 11.0968
2 4.20845 -5.25714 -10.9567
2 10.8339 7.59404 -2.29516
1 -1.34003 13.1061 2.14612
1 -11.8563 5.47763 -2.05979
2 -10.5479 -7.76705 2.29322
2 1.35626 -13.1641 -2.0509
3 12.003 -5.65491 2.09278
2 1.5242 2.38982 13.2658
2 2.84559 -0.0251951 -13.0574
1 9.52782 8.4482 -4.34603
2 -2.61748 12.3246 4.33087
2 -12.1009 3.87094 -4.30742
2 -9.3426 -8.51885 4.51183
2 2.69588 -12.226 -4.25081
1 -2.69991 0.809255 13.4589
2 1.47756 2.21185 -13.1522
2 10.7797 6.11213 1.93526
3 0.0943237 12.591 -2.10031
1 -10.7631 6.15204 2.3045
1 -10.8308 -6.29321 -2.20715
2 9.54754 5.34442 4.08362
3 0.00821899 10.9415 -4.3828
3 -9.30957 5.34111 4.33941
2 -9.45562 -5.2436 -4.31869
2 -0.0881111 -10.8976 4.31642
3 9.25436 -5.47826 -4.40896
2 8.0746 4.46254 6.51451
3 -0.0944461 9.35809 -6.51672
2 -7.93316 4.66257 6.55683
2 -7.89567 -4.56603 -6.4294
2 0.00907692 -9.14828 6.65063
3 8.13192 -4.56956 -6.64603
1 6.66295 3.88169 8.49646
2 0.39052 7.96661 -8.71397
2 -6.53995 3.74184 8.6735
2 -6.67107 -3.9869 -8.75952
2 -0.0255589 -7.64805 8.85037
2 6.75649 -3.47735 -8.72442
3 5.5569 3.2076 10.9243
2 0.114419 6.24513 -10.9759
1 -5.0197 3.29346 11.0355
2 -5.0796 -3.0255 -10.9076
1 -0.128334 -6.05579 11.057
2 5.78758 -2.86862 -11.0935
3 -3.80889 13.1284 2.07686
3 -9.33802 -10.0784 2.1587
2 13.4371 -3.35171 2.31577
2 -0.968633 5.3279 12.5095
1 4.06308 2.27163 -12.7336
3 9.31971 8.23362 2.0951
2 -2.72078 12.4015 -2.33214
3 -12.1052 3.86964 1.86999
3 -9.44766 -8.62722 -2.28197
2 2.71357 -12.4416 2.20573
1 12.1451 -3.95189 -2.22724
1 8.06222 7.8531 4.22958
3 -2.61247 10.8989 -4.26177
1 -10.9382 3.10902 4.109
1 -7.96429 -8.09229 -4.41855
2 2.71217 -10.6982 4.48717
1 6.7206 6.90614 6.59927
2 -9.38418 2.22377 6.38761
2 -6.65891 -6.83959 -6.22928
1 9.47592 -2.39716 -6.58668
3 5.32888 6.19135 8.73589
2 -2.79993 7.77158 -8.75385
2 -7.94552 1.34181 8.627
2 2.7961 -7.85552 8.77528
1 8.03586 -1.41832 -8.68012
1 4.16945 5.44929 10.9385
2 -2.7621 6.13136 -10.8079
2 -6.62239 0.8282 10.9648
2 -4.22709 -5.57261 -10.6919
2 2.59386 -6.07546 10.993
3 6.70039 -0.487263 -10.7643
3 -5.2291 12.3444 -2.19322
2 -13.3133 1.40066 2.11643
2 -7.99103 -10.9503 -1.98856
3 5.34547 -12.2291 2.03262
2 13.4182 -1.6133 -2.33319
2 6.69601 8.42549 2.15363
2 -5.3497 10.7953 -4.44338
3 -12.124 0.867459 4.30039
1 5.39843 -10.8221 4.17946
2 12.3133 -0.679968 -4.44671
1 5.31482 9.24689 6.67188
1 -5.15286 9.14635 -6.93305
3 -10.8877 0.0297756 6.59256
2 -5.33217 -9.38691 -6.4363
1 5.39569 -9.29121 6.55354
2 10.8463 0.0228145 -6.56739
2 3.9835 8.35699 8.676
3 -9.38758 -0.808172 8.79617
2 -3.95299 -8.60888 -8.65181
3 5.36973 -7.73918 8.69783
1 9.17189 0.902282 -8.92869
2 2.66136 7.77131 10.8004
2 -5.44641 6.06341 -10.8084
2 -8.19895 -1.35889 11.0428
3 -2.72764 -7.67905 -10.7482
2 5.43738 -6.13298 10.9032
2 18.9966 -0.255935 0.197808
3 9.50385 15.9882 0.11726
3 -9.27985 16.2269 -0.195876
2 -18.7452 0.0147946 -0.0568014
1 9.39568 -16.3792 -0.15656
1 9.47482 -5.50263 15.4569
1 -0.0258807 10.5334 14.9897
3 -9.54451 -5.18445 15.2895
2 -0.0177803 -10.7399 -15.1724
1 9.19814 5.71243 -15.5204
1 -8.94714 6.03582 -14.2571
1 17.3292 2.26656 -7.6636e-05
2 17.3929 -0.967736 2.32104
3 17.5115 0.730994 -2.10444
2 6.87866 16.1972 -0.220055
2 7.97844 15.2053 1.86836
2 9.40117 14.6321 -2.04707
1 -10.4867 13.9476 -0.148884
1 -7.88816 15.2721 2.09584
2 -9.17542 14.693 -2.19073
2 -17.3016 -2.47153 0.0637106
3 -17.3857 -0.911517 2.22419
3 -17.2916 0.622311 -2.18437
3 -6.33695 -16.3086 0.0725391
3 -9.25129 -14.6217 2.32155
2 -8.00311 -15.3045 -2.05996
3 10.7277 -14.1654 0.0175215
1 9.46497 -14.9487 2.10564
1 7.901 -2.87752 15.3239
2 6.86212 -5.45222 15.6063
2 1.44984 -8.28095 -15.2022
1 6.65956 5.51913 -15.1809
3 16.3035 4.66499 -0.0485195
2 16.3555 -1.69382 4.46777
3 16.1667 1.73795 -4.25006
1 2.89171 15.4679 2.29907
2 6.77543 14.3184 4.51738
1 9.40603 13.3367 -4.30753
2 -12.0214 11.3764 -0.034947
1 -6.4241 14.7361 4.43308
2 -9.43974 13.1322 -4.34441
1 -15.9839 -1.50399 4.53724
1 -15.9964 1.47187 -4.29503
1 -3.67389 -16.4354 -0.00416498
2 -9.37972 -12.9894 4.34123
3 -6.67264 -14.714 -4.35515
2 12.0883 -11.7424 -0.0406714
2 9.27658 -13.4613 4.46204
3 6.6218 -14.8373 -4.37914
1 4.14481 -5.52178 15.3667
1 2.66471 -5.94642 -15.1387
2 -2.74993 -6.00787 -15.0408
1 4.10785 5.43781 -15.2994
2 14.6879 6.79504 -0.209982
1 14.7774 -2.41766 6.46975
1 14.8477 2.3479 -6.64548
2 1.39954 16.4185 -0.263487
1 5.3173 13.8255 6.64201
2 9.41529 11.9514 -6.37884
3 -13.4663 9.23473 -0.249421
2 -5.05374 13.6479 6.48696
2 -9.30146 11.5905 -6.59812
2 -14.7081 -7.03566 -0.169873
2 -14.9147 -2.26126 6.685
1 -14.8449 2.10576 -6.45399
3 -1.02536 -16.6953 0.0973856
2 -9.2005 -11.2957 6.73237
3 -5.31545 -13.8438 -6.52267
2 13.346 -9.22265 -0.0125264
2 9.3265 -11.6651 6.39853
1 5.46111 -13.9322 -6.33059
1 1.42043 -5.45865 15.3123
2 -3.30975 3.97817 14.3239
3 4.07672 -3.79234 -15.0901
3 -4.03839 -3.77675 -15.2653
3 13.3792 9.1792 -0.147543
1 13.2918 -3.26325 8.64843
1 4.05862 13.1327 8.83859
2 9.24214 10.0999 -8.95109
2 -14.7618 7.04368 0.0149332
3 -3.87041 12.9498 8.69743
2 -13.5912 -9.37655 -0.0122223
2 -13.4323 -3.01848 8.81212
2 -13.1853 3.06167 -8.56649
2 -9.50511 -10.0285 8.8906
3 -4.00805 -13.1124 -8.99056
1 14.5606 -7.13446 -0.189143
3 9.35382 -10.2193 8.60063
3 4.1242 -12.9836 -8.75227
2 3.82942 3.82657 15.3201
3 -1.33293 -5.48237 15.5267
1 -4.92618 1.70432 14.9173
3 5.53478 -1.43167 -15.0212
3 -5.52866 -1.53179 -15.2442
1 -1.4483 5.46359 -15.2596
3 12.0197 11.3215 -0.182113
1 11.9659 4.00054 -11.09
1 -3.88638 16.04 -0.041696
3 2.6728 12.3392 11.0122
1 -15.9739 4.61154 -0.0907607
2 -2.67571 12.0962 10.7368
3 -9.40338 8.46029 -11.0294
2 -12.2504 -11.5293 0.112927
2 -12.0772 -3.86019 10.8138
2 -11.7961 3.82526 -10.6982
2 -9.34605 -8.39425 10.8379
2 16.1317 -4.71978 -0.164852
2 2.61833 -12.3688 -10.8664
3 2.8313 6.11689 15.1737
1 -4.07555 -5.37318 15.5734
1 -6.49344 -0.593037 15.3518
3 6.65453 0.975153 -15.1121
1 -6.86373 0.83021 -15.3897
3 10.7005 13.7372 0.10182
1 10.8167 -4.74758 13.0426
2 10.7281 4.78439 -13.2906
2 -6.69219 16.2344 -0.274319
3 1.36575 11.375 12.8558
2 9.39783 7.04713 -13.4841
1 -17.4182 2.38039 -0.100393
3 -1.30839 11.2493 12.8957
2 -10.5541 -13.8668 0.130019
2 -10.7687 -4.45847 13.12
2 -10.3763 4.55759 -12.8955
2 6.65083 -16.3088 -0.126796
2 -9.52402 -6.74562 13.1541
2 -1.31934 -11.5507 -13.1368
3 17.2603 -2.34519 0.0336848
2 9.51815 -6.87371 13.22
3 1.37955 -11.4842 -13.1128
3 1.32282 8.28386 15.0891
1 -6.64232 -5.25596 15.4921
2 -8.31111 -2.9936 15.3133
3 8.0894 3.14505 -15.1224
1 -7.96483 3.19729 -15.0998
2 -6.61826 5.59349 -15.4137
1 15.9018 3.12751 -2.1849
1 5.45293 15.4879 1.88803
2 -10.5511 12.3178 -2.20477
2 -16.1217 -3.26155 2.37655
2 -5.29814 -15.5415 -2.27173
3 10.7059 -12.6226 2.13449
3 5.49544 -2.96398 15.3913
2 -0.0459638 -5.7726 -15.2658
2 14.7373 3.78727 -4.50244
3 -10.586 10.746 -4.52743
2 -14.6048 -4.16987 4.50732
3 -4.01138 -14.7154 -4.44523
2 10.7899 -10.9649 4.15444
1 2.75443 -3.06101 15.386
1 -1.35324 -3.69515 -15.3092
1 13.4072 4.70585 -6.70295
3 2.842 13.9015 6.56384
1 -10.4938 9.19867 -6.78895
1 -13.3618 -4.66502 6.91161
1 -2.73837 -13.8826 -6.71773
1 10.6164 -9.48572 6.41008
2 -0.182649 -3.0626 15.5769
1 -2.80686 -1.34448 -15.3329
1 12.0396 5.37557 -8.90814
2 1.48399 13.1124 8.67303
3 -10.5856 7.61771 -8.76402
2 -1.32181 -13.2091 -8.85144
1 10.6585 -7.84892 8.54707
2 -2.82394 -3.17317 15.4906
1 -4.15922 0.854727 -15.3528
3 10.7151 6.09679 -11.1134
3 0.0770319 12.2242 10.8444
3 -10.6324 6.0986 -10.8832
3 -10.7536 -6.05897 11.0157
2 -0.180228 -12.3097 -10.9845
2 10.858 -6.24518 10.877
2 -5.62786 -2.9563 15.54
1 -5.21155 3.26024 -15.3674
2 16.243 1.43851 2.17518
1 6.88296 14.6239 -2.0732
2 -16.1078 -1.64742 -2.1244
1 -6.62787 -14.6437 2.33664
1 9.46297 -13.1325 -2.16482
2 14.8043 0.606646 4.25833
1 6.61995 13.1526 -4.41786
2 -7.86199 12.0733 4.4044
2 -14.5888 -0.863376 -4.34721
1 -6.47191 -12.8023 4.58142
1 8.04547 -12.3372 -4.32562
1 13.3888 -0.0677831 6.53621
2 6.4811 11.5053 -6.37089
3 -6.63779 11.4228 6.57732
1 -13.2754 -0.121739 -6.54902
1 -6.69469 -11.3774 6.74318
2 6.72153 -11.5756 -6.45546
3 12.134 -0.967037 8.7772
3 6.73235 10.035 -8.73638
2 -5.31912 10.7639 8.68021
2 -12.0043 0.683546 -8.75842
2 -6.76946 -9.92567 8.82971
1 5.41963 -10.7771 -8.62173
2 10.7454 -1.58238 10.8997
2 6.68165 8.61202 -10.9364
2 -3.74931 9.79057 10.6587
1 -10.584 1.40485 -10.7538
2 -6.69048 -8.25673 11.072
2 4.03489 -10.0049 -10.7761
3 9.40275 -2.23747 12.9993
1 -2.32965 8.7629 12.5901
1 -9.44805 2.24817 -12.9687
3 -6.9816 -6.85181 13.0597
2 2.86122 -9.26948 -13.0452
2 -12.1146 9.99821 -2.22714
2 -14.8947 -5.53954 2.18623
2 -2.71712 -15.3099 -2.11084
1 12.2247 -10.3337 2.10811
2 4.17803 -0.661792 15.4312
1 1.41391 -3.68994 -15.0571
2 13.3689 6.248 -4.49308
3 1.435 14.7701 4.28835
2 -12.0364 8.30338 -4.12942
2 -13.0681 -6.07968 4.39868
1 -1.47797 -14.7632 -4.34131
2 12.0904 -8.73728 4.12964
1 1.35318 -0.50416 15.4214
2 -0.0644899 -1.4391 -15.38
1 12.0998 6.9592 -6.77146
1 0.327206 13.754 6.51321
3 -11.8201 6.91459 -6.46816
3 -11.9467 -6.8677 6.65323
2 0.0996803 -13.8596 -6.49615
2 12.3196 -7.0366 6.4407
3 -1.44173 0.85481 -15.1743
3 10.6085 7.86217 -8.82778
1 -1.3341 12.9906 8.80745
3 -11.7812 5.4365 -8.74136
1 -10.7749 -7.66517 8.89706
2 1.33763 -12.9938 -8.73353
2 12.0954 -5.69464 8.52271
3 -3.87821 -0.81881 15.4332
2 -2.67321 3.09642 -15.2424
1 14.8698 3.69424 2.16142
2 3.99062 14.8229 -2.28703
2 -10.5402 10.6956 2.27991
1 -14.7139 -3.89722 -2.31906
2 -3.90549 -14.6796 2.37946
2 11.1097 -10.8345 -2.164
3 13.5494 2.88995 4.35927
2 -13.1867 -3.01625 -4.4525
3 -3.84361 -13.1224 4.49883
2 9.47862 -10.1588 -4.39749
2 11.8207 2.2449 6.45139
3 3.808 11.8138 -6.35453
2 -7.93344 9.16581 6.54841
1 -11.8126 -2.43829 -6.44655
2 -4.05069 -11.3987 6.59857
3 8.1265 -9.35612 -6.50474
2 10.8343 1.22657 8.64353
3 3.19109 9.3861 -9.22644
1 -6.5278 8.53306 8.91898
2 -10.6922 -1.46129 -8.78958
2 -3.85008 -9.81774 8.95456
2 6.79087 -8.54571 -8.50386
2 9.38555 0.715311 10.8065