3997
 Atoms. Timestep: 6000
2 0.0121489 -0.0496884 -0.101487
3 2.73879 -0.0734834 -0.177111
2 1.4507 2.40934 -0.269396
2 -1.29966 2.37886 -0.195001
1 -2.49501 -0.0590343 0.0955058
3 -1.27546 -2.45078 0.0661432
2 1.3879 -2.27329 -0.0759379
2 1.40406 -0.779976 2.02181
2 0.187814 1.72489 2.10733
2 -1.28913 -0.995243 2.34378
2 0.00972352 -1.58795 -2.20823
1 1.35559 0.770175 -2.25
3 -1.22012 0.757293 -2.27407
1 5.45524 0.0980126 -0.0312373
1 2.74076 4.67461 -0.219719
3 -2.66836 4.58798 -0.0695647
2 -5.30865 0.0365547 0.105942
2 -2.61141 -4.65895 0.150554
3 2.83686 -4.68868 0.0229742
2 2.67312 -1.69184 4.2576
2 -0.0146312 3.17503 4.33167
2 -2.63022 -1.40234 4.58044
2 0.172194 -3.05961 -4.5483
3 2.57076 1.65174 -4.49995
3 -2.6689 1.52205 -4.43155
1 4.0282 2.43499 -0.00833913
2 4.23439 -0.540549 2.21323
3 4.05997 0.778968 -2.21577
1 0.0588658 4.60381 -0.141515
1 1.58752 3.80435 2.14938
2 2.84991 3.11873 -2.25031
1 -3.93543 2.29886 -0.034384
2 -1.3501 3.929 2.19255
1 -2.57909 2.97261 -2.28445
1 -3.86937 -2.35537 0.0765058
1 -4.07662 -0.71962 2.19646
1 -3.97513 0.758505 -2.31328
3 0.113151 -4.58824 -0.0532814
2 -2.81815 -3.16508 2.26223
2 -1.35447 -3.71711 -2.1499
3 4.12426 -2.28357 -0.0139452
2 2.71339 -3.12213 2.02546
2 1.48067 -4.02615 -2.14496
3 1.35604 0.616935 4.3428
2 0.136585 -1.6348 4.43387
1 -1.15508 0.804347 4.36047
2 1.45737 -0.782492 -4.32594
1 -1.3826 -0.7971 -4.39672
2 0.0265476 1.4206 -4.34786
3 2.72654 1.42669 2.09998
3 0.169731 3.27406 -2.26808
1 -2.65503 1.6571 2.24422
3 -2.61035 -1.54274 -2.25944
2 0.0197205 -3.21562 2.14559
2 2.70105 -1.56074 -2.26709
2 8.12877 0.206473 -0.0799662
1 3.98383 7.0249 -0.153053
1 -4.0305 6.88263 0.0064007
1 -7.91042 -0.0386846 0.0250857
1 -4.01894 -7.02141 0.132148
3 4.17043 -6.96695 0.026763
1 3.88321 -2.44646 6.5629
2 -0.0159592 4.60329 6.44451
2 -4.11541 -2.31938 6.75158
3 0.0250566 -4.70015 -6.61341
2 4.17134 2.36644 -6.6569
3 -3.98272 2.25471 -6.60116
3 6.82637 2.50282 -0.128016
1 6.75603 -0.819001 2.2117
3 6.72512 0.796466 -2.3073
3 1.26716 7.07407 0.0072751
1 2.72209 6.16299 2.02265
3 4.03477 5.39809 -2.37804
1 -5.53145 4.59791 -0.027821
3 -2.57961 6.22816 2.12998
1 -3.98842 5.3182 -2.2419
3 -6.63766 -2.34902 0.155345
1 -6.67325 -0.711541 2.33993
1 -6.75554 0.653071 -2.18364
1 -1.15566 -7.20387 0.0882455
3 -4.22921 -5.42846 2.19408
1 -2.55299 -6.23518 -2.1389
2 5.42356 -4.74871 -0.0330291
2 4.03768 -5.57072 2.22508
3 2.73975 -6.17023 -2.17941
2 2.63377 -0.166111 6.5706
3 1.36144 -2.32508 6.54397
2 -1.46813 2.30363 6.55706
3 1.40193 -2.54245 -6.67561
2 -1.33803 -2.42762 -6.65004
3 1.32036 2.24542 -6.63213
1 5.36435 4.80763 -0.166173
2 5.42134 -1.66673 4.66164
3 5.43365 1.54415 -4.47299
2 -1.47601 6.91168 0.0289361
3 1.27727 5.51243 4.21182
1 3.97078 3.8011 -4.53833
2 -6.64517 2.37496 0.00500527
2 -1.37409 5.50559 4.29053
2 -4.06261 3.89576 -4.43784
3 -5.34229 -4.66444 -0.0216081
2 -5.21099 -1.42728 4.50463
1 -5.40317 1.4671 -4.54585
2 1.50918 -7.01232 0.195749
2 -4.10841 -3.81617 4.59638
1 -1.36225 -5.45957 -4.47701
1 6.67422 -2.23904 0.0428475
2 4.03755 -4.11106 4.50637
1 1.3623 -5.33685 -4.38176
1 1.36695 2.28044 6.52691
1 -1.36487 -2.44669 6.71357
2 -2.76171 0.0101991 6.72811
2 2.73976 0.0421697 -6.49071
2 -2.78161 0.030687 -6.45937
2 -1.38532 2.32589 -6.68996
1 5.46378 2.99804 -2.3578
2 0.0675421 6.17992 2.1756
3 -5.33328 3.05666 -2.2937
2 -5.41173 -3.04768 2.27348
1 0.0411687 -6.18132 -2.27467
2 5.21862 -3.12849 2.21819
2 0.050867 -0.077368 6.55803
2 0.106317 -0.152904 -6.64806
1 5.4594 1.6861 2.14584
3 1.33895 5.53221 -2.29404
2 -3.9402 4.0358 2.21857
1 -5.33638 -1.65221 -2.19593
1 -1.45867 -5.53258 2.2908
1 4.11004 -3.77193 -2.19643
1 4.07315 0.673755 4.40527
2 1.37228 4.03443 -4.4777
2 -2.66446 3.12232 4.39415
3 -4.04787 -0.762833 -4.37433
2 -1.39733 -4.01061 4.22928
1 2.71189 -3.11899 -4.40848
3 4.16738 3.89384 2.03368
2 -1.37654 5.33945 -2.26953
3 -5.26396 1.69744 2.14928
2 -4.09257 -4.06286 -2.20619
1 1.43825 -5.52646 2.11098
2 5.57965 -1.40744 -2.1694
3 2.66182 2.97552 4.21672
1 -1.41338 3.95945 -4.49804
1 -4.03677 0.962518 4.55191
2 -2.78797 -3.08687 -4.26821
2 1.30148 -4.00759 4.34266
1 4.09934 -0.691152 -4.33426
2 10.7543 0.11435 -0.234138
3 5.25203 9.33956 0.00229692
1 -5.42488 9.36777 -0.0492792
2 -10.8833 -0.104173 0.102031
1 -5.33684 -9.42152 0.0368735
1 5.16191 -9.45597 -0.0732237
1 5.43742 -3.25377 8.92654
2 -0.0325496 6.13113 8.66926
2 -5.28722 -3.14265 8.9491
2 -0.181919 -6.17956 -8.69311
3 5.41805 3.39129 -8.90842
1 -5.31357 3.23431 -8.7721
3 9.46654 2.45939 -0.305546
2 9.45675 -0.727003 2.10824
2 9.43728 0.865138 -2.40435
1 2.68417 9.39606 0.0433474
1 4.10135 8.5217 2.21424
2 5.42254 7.81888 -2.161
2 -6.68174 6.86398 -0.0155257
1 -4.09612 8.54075 2.11428
1 -5.67756 7.6312 -2.20255
1 -9.43759 -2.32208 -0.00723083
2 -9.39891 -0.851544 2.24424
1 -9.48241 0.843451 -2.24552
3 -2.53391 -9.48084 0.0881293
2 -5.5388 -7.74367 2.18357
3 -4.05088 -8.54661 -2.22828
1 6.69514 -7.20183 -0.154886
3 5.36676 -7.89429 2.083
2 3.93913 -8.48594 -2.05423
2 4.09374 -1.20773 8.66107
3 2.69061 -3.32191 8.9821
2 -1.36388 3.85235 8.82136
2 1.27297 -3.85433 -8.81495
1 -1.38794 -4.0879 -8.73414
2 2.76938 3.27779 -8.92247
2 8.11005 4.73616 -0.362495
1 8.06545 -1.72981 4.56998
3 8.19079 1.57925 -4.56567
2 -0.0161693 9.46464 -0.0917994
1 2.72285 7.91681 4.38148
2 5.34156 6.24262 -4.36585
3 -8.03325 4.6615 0.136174
3 -2.70553 7.85604 4.31136
3 -5.38726 6.36316 -4.39409
3 -8.09718 -4.66501 -0.0567738
3 -7.95812 -1.57677 4.42389
3 -8.03808 1.50554 -4.41616
3 0.175239 -9.3489 0.127582
2 -5.42669 -6.1089 4.64786
1 -2.70938 -7.81546 -4.34096
2 8.03396 -4.63283 0.0789857
2 5.49115 -6.4672 4.36493
2 2.60347 -7.75623 -4.31338
2 2.62278 1.27508 8.85713
3 -0.0740931 -3.29811 8.91282
1 -2.61758 1.53957 8.71879
2 2.85081 -1.41405 -8.74129
2 -2.69651 -1.60555 -8.73658
3 0.0468307 3.21608 -8.83425
2 6.67713 7.21105 0.01333
1 6.50916 -2.48874 6.77569
3 6.84837 2.29469 -6.58201
2 -2.72959 9.34397 -0.0706285
1 1.29583 7.09174 6.57011
2 5.38067 4.78481 -6.7451
2 -9.32963 2.253 0.0635793
2 -1.36917 7.08777 6.46371
2 -5.25478 4.69727 -6.45233
2 -6.69619 -6.92914 0.0359313
3 -6.71613 -2.2555 6.50202
1 -6.71901 2.2455 -6.60288
3 2.58105 -9.4783 0.259807
3 -5.38248 -4.61799 6.66541
3 -1.38024 -6.96921 -6.53314
1 9.47284 -2.25187 -0.117379
3 5.2666 -4.89293 6.68915
1 1.34378 -6.9743 -6.62604
3 1.2749 3.64658 8.57395
2 -2.63928 -3.30808 9.01212
3 -4.09601 -0.874043 8.94999
1 4.1032 1.09854 -8.88441
2 -4.08545 0.841356 -8.79223
1 -2.68698 3.24221 -8.78489
3 8.14986 3.1158 -2.34698
2 1.44071 8.65074 2.08023
3 -6.74064 5.40154 -2.29739
2 -8.18537 -3.09957 2.0388
3 -1.33767 -8.57115 -2.18426
1 6.69635 -5.75139 2.1281
1 1.25347 -1.049 8.73211
3 0.0452367 -1.54802 -8.67244
2 6.71695 3.83324 -4.30219
2 -0.0125372 7.78929 4.41967
3 -6.69506 3.83334 -4.40096
2 -6.72006 -3.77053 4.47134
2 -0.133403 -7.81613 -4.45965
3 6.56749 -3.9107 4.25989
1 -1.54778 -0.997717 8.95558
2 -1.3415 0.688498 -8.83402
3 8.00462 1.65593 2.19552
3 2.57758 7.90387 -2.23406
3 -5.39613 6.25041 2.11347
1 -7.96276 -1.72321 -2.1588
2 -2.7351 -7.88794 2.31192
1 5.39787 -6.06895 -2.16206
3 6.64326 0.764014 4.39875
2 2.55259 6.33333 -4.37826
2 -4.01117 5.72649 4.41574
3 -6.7147 -0.825606 -4.37413
3 -2.76237 -6.36357 4.41726
2 4.09378 -5.46252 -4.37786
3 5.34556 -0.0684786 6.66064
1 2.68814 4.73665 -6.78431
2 -2.68463 4.84685 6.51746
3 -5.32882 -0.131541 -6.6851
2 -2.87287 -4.6213 6.70508
2 2.76071 -4.81408 -6.58698
1 6.7734 5.40022 -2.35822
2 -1.3396 8.66908 2.17789
1 -8.00422 3.0869 -2.24263
2 -6.86053 -5.34869 2.22663
2 1.32901 -8.5502 -2.00197
1 8.05167 -3.21142 2.16947
1 -0.0243013 1.35581 8.8709
1 1.27867 0.908195 -8.8253
2 6.83585 3.95851 2.06363
3 -0.153499 7.77664 -2.03098
2 -6.46801 3.78388 2.42773
3 -6.75411 -3.92482 -2.21342
1 -0.129547 -7.90342 2.38248
3 6.80235 -3.93319 -2.17494
2 5.36417 3.22214 4.226
1 -0.0766255 6.39478 -4.43503
3 -5.40284 3.1918 4.54133
3 -5.35815 -3.15546 -4.31065
2 -0.0121404 -6.35517 4.52316
1 5.39283 -3.14136 -4.29453
1 3.92458 2.37099 6.50402
2 0.0338282 4.56261 -6.6162
3 -3.99087 2.53599 6.76478
2 -4.13864 -2.47657 -6.40092
2 -0.0863382 -4.69641 6.77222
1 4.00952 -2.32686 -6.63443
2 5.34493 6.2973 2.17912
1 -2.88035 7.7761 -2.24327
2 -7.89096 1.47115 2.20912
1 -5.3718 -6.30737 -2.16565
2 2.78606 -8.01835 2.18981
2 8.14707 -1.45116 -2.25947
3 4.06297 5.49702 4.46682
3 -2.60174 6.3887 -4.48579
3 -6.65743 0.727732 4.45802
3 -4.10726 -5.52514 -4.33425
2 2.78998 -6.36057 4.52064
2 6.79706 -0.603856 -4.45919
1 2.50304 4.71109 6.43731
3 -2.61486 4.70088 -6.74054
3 -5.40804 -0.00391829 6.69658
2 -2.85548 -4.80326 -6.53219
1 2.52333 -4.84347 6.56677
1 5.53715 0.150725 -6.79251
1 13.3299 0.0942242 -0.27459
1 6.80165 11.7074 0.217674
2 -6.67006 11.6385 -0.105424
2 -13.4755 -0.132391 0.272931
2 -6.78459 -11.6076 0.0729854
2 6.72896 -11.8369 -0.153472
1 6.74232 -4.09457 11.0794
2 0.00995685 7.97958 10.9746
2 -6.76673 -4.01425 10.9955
3 0.0417919 -7.75489 -11.0206
3 6.78327 3.98122 -11.1362
3 -6.73155 3.77949 -11.0001
2 12.1472 2.42133 -0.0745245
1 11.9756 -0.711737 2.03115
2 11.9475 1.01297 -2.37335
2 3.86992 11.5642 0.169414
2 5.51296 10.9607 2.25022
1 6.71561 10.2395 -2.15659
1 -8.22613 9.08712 0.0493035
3 -5.27557 11.0163 2.28591
2 -6.69862 9.9917 -2.11394
3 -12.0324 -2.42594 0.145662
1 -12.1032 -0.70238 2.44344
3 -12.2449 0.841507 -2.1974
2 -4.05755 -11.7209 -0.149439
1 -6.68119 -10.1422 2.28615
1 -5.46972 -10.9368 -2.13515
2 8.0444 -9.2971 -0.131133
2 6.62793 -10.2231 2.10914
2 5.33618 -10.9001 -2.1177
3 5.48392 -1.68758 11.0572
2 4.01136 -4.05377 11.1616
2 -1.19671 5.56142 11.1056
2 1.39847 -5.30665 -11.1235
2 -1.36592 -5.60523 -10.9853
1 4.09676 4.23666 -11.2548
3 10.8467 4.67787 -0.219517
2 10.7663 -1.55185 4.27623
3 10.7845 1.67295 -4.59169
3 1.3321 11.6687 -0.156905
2 4.07938 10.2376 4.50023
2 6.57221 8.66151 -4.28259
3 -9.39763 6.90353 0.145303
1 -4.00145 10.1477 4.44661
1 -6.9443 8.52468 -4.47211
3 -10.7673 -4.66247 -0.0432913
2 -10.6987 -1.54697 4.50234
2 -10.7719 1.44382 -4.39366
2 -1.45802 -11.7644 -0.0271488
2 -6.86096 -8.48258 4.36798
2 -3.98419 -10.2059 -4.532
2 9.30149 -7.08243 0.0969373
3 6.74247 -8.75764 4.43444
3 3.99073 -10.1903 -4.2611
2 4.0635 0.706021 11.0159
2 1.22025 -3.95488 11.1745
2 -2.6414 3.11643 11.0123
2 2.68284 -3.01738 -11.0945
2 -2.61017 -3.10377 -11.0561
2 1.26535 3.90332 -11.0648
3 9.52131 7.03863 -0.275401
2 9.34137 -2.39088 6.72394
2 9.38902 2.49448 -6.66064
1 -1.23033 11.7861 -0.116753
3 2.68863 9.51357 6.713
2 6.9607 7.05287 -6.66571
1 -10.7463 4.66056 -0.03456
2 -2.63096 9.47972 6.69098
1 -6.74366 6.82317 -6.53673
2 -9.52542 -6.891 0.0617479
3 -9.34635 -2.24898 6.54317
2 -9.47414 2.23306 -6.64855
3 1.2279 -11.7489 0.0833013
3 -6.93346 -6.92468 6.49167
2 -2.63745 -9.14374 -6.6784
2 10.6821 -4.7492 -0.0133511
2 6.719 -7.07806 6.62064
1 2.79703 -9.4615 -6.48729
3 2.61428 3.05974 11.1424
3 -1.36677 -4.03819 11.1735
1 -3.9765 0.569801 11.0357
3 4.09548 -0.649745 -10.9931
2 -4.08488 -0.72187 -10.8414
2 -1.23175 3.86538 -10.9985
2 8.37883 9.39169 -0.00638058
2 8.10186 -3.18765 8.7808
3 8.06016 3.15922 -8.87758
3 -3.99215 11.7138 -0.0985261
2 1.44385 8.67713 8.86178
3 6.69045 5.57245 -8.92394
2 -12.0241 2.33241 0.172032
1 -1.18848 8.66554 8.74659
1 -6.82219 5.46617 -8.74247
2 -8.13023 -9.29782 0.110234
1 -8.03233 -3.16556 8.73368
3 -7.96493 3.08566 -8.77774
2 3.95959 -11.7185 -0.078258
3 -6.49813 -5.46276 8.91157
2 -1.33554 -8.55523 -8.81398
3 12.1295 -2.39208 -0.0765948
1 6.72147 -5.67381 8.90546
2 1.34182 -8.64036 -8.73213
2 1.41425 5.43521 11.0556
1 -4.22792 -4.12943 11.1418
3 -5.45478 -1.74597 11.1539
3 5.36362 1.71654 -11.1592
3 -5.33149 1.57167 -10.8807
2 -4.188 3.83737 -11.0238
3 10.7324 3.22103 -2.44167
3 2.72286 10.9801 2.50571
2 -8.15524 7.5449 -2.09389
2 -10.7724 -3.232 2.42243
1 -2.73027 -10.8791 -2.21406
2 8.00037 -7.92782 2.26582
2 2.70641 -1.72775 11.1702
1 -0.0242614 -3.19646 -10.9929
2 9.45349 3.94994 -4.47215
2 1.44126 10.2342 4.55454
2 -8.06476 6.07323 -4.51512
3 -9.52551 -3.87477 4.54431
2 -1.38468 -10.0941 -4.29569
3 7.98532 -6.56223 4.4532
2 0.0811416 -1.65638 10.9139
2 -1.39813 -0.801332 -10.8703
2 8.06301 4.79067 -6.83837
3 0.0994243 9.56226 6.7009
1 -8.11845 4.51628 -6.6211
2 -7.98393 -4.61894 6.63288
1 0.0779776 -9.47431 -6.68976
3 7.99885 -4.79616 6.85514
2 -2.84665 -1.79052 11.1678
1 -2.72163 1.55795 -11.0496
1 10.6416 1.65386 1.95931
2 3.935 10.1632 -2.19332
2 -6.79099 8.56434 2.30338
3 -10.6552 -1.62378 -2.14571
2 -4.09755 -10.1499 2.09961
1 6.79413 -8.52183 -2.32915
1 9.2766 0.706062 4.33021
2 3.99343 8.72016 -4.33049
1 -5.37483 7.8774 4.32309
2 -9.33444 -0.810873 -4.45427
2 -4.26796 -8.58078 4.40285
2 5.39094 -7.88721 -4.27103
1 7.96828 -0.0522856 6.74304
1 4.12148 7.26051 -6.73426
3 -4.0594 7.14758 6.6067
1 -8.00774 0.00716253 -6.49003
2 -4.18966 -7.0763 6.64549
2 4.01713 -7.22986 -6.62365
3 6.73194 -0.934571 8.86946
2 4.03116 5.49909 -8.80448
1 -2.76458 6.36443 8.80702
1 -6.59388 0.868023 -8.86722
3 -4.12957 -5.67101 8.84524
2 2.68144 -6.18591 -8.87839
3 9.5574 5.46142 -2.37268
1 0.163844 10.9064 2.05492
2 -9.40355 5.37273 -2.00915
3 -9.40707 -5.36346 2.21419
2 -0.0288025 -10.8579 -1.98601
1 9.24141 -5.64414 2.23561
3 1.44924 0.55553 10.9917
1 1.47323 -0.805614 -10.9078
2 8.1812 6.21197 -4.59857
3 -1.24103 10.0956 4.56414
1 -9.49241 3.70218 -4.45943
2 -8.28841 -6.21046 4.40271
2 1.3488 -9.96533 -4.21529
3 9.47268 -3.90074 4.43339
3 -1.34861 0.587072 11.1194
3 -0.0284999 1.42918 -10.9535
1 9.48196 3.99454 1.92538
3 1.3888 10.1377 -2.27687
2 -8.11426 6.232 2.23511
3 -9.51164 -3.95793 -2.11798
2 -1.17446 -10.1968 2.22938
1 8.13409 -6.27258 -2.21689
1 7.96554 3.18623 4.31271
3 1.30293 8.62208 -4.40584
2 -6.75937 5.51679 4.48514
3 -7.91623 -3.13217 -4.42031
2 -1.47228 -8.64961 4.60404
3 6.78502 -5.59616 -4.40065
2 6.69895 2.29688 6.51292
1 1.25217 7.06439 -6.69207
1 -5.2624 4.79276 6.66223
2 -6.73812 -2.35358 -6.62168
1 -1.33783 -7.07293 6.88458
2 5.59776 -4.68241 -6.4681
2 5.26541 1.4991 8.79944
3 1.29585 5.61738 -9.05376
3 -4.08478 3.83059 8.91394
1 -5.27266 -1.54955 -8.62561
3 -1.43081 -5.50284 9.05605
2 4.10644 -3.84676 -8.8012
2 8.06269 7.82896 -2.22137
2 -2.7754 11.0536 2.00007
2 -10.8186 3.04577 -2.15357
1 -8.24863 -7.81454 2.20006
3 2.65991 -10.9593 -2.1976
1 10.6533 -3.26763 2.20982
3 0.0968415 3.22469 10.8379
1 2.68981 1.65329 -11.0768
1 8.26516 6.24879 2.08566
2 -1.20197 10.1559 -2.25034
2 -9.12625 3.77123 2.20595
2 -7.95815 -6.28816 -2.13155
3 1.42984 -10.1759 2.36394
1 9.50388 -3.86796 -2.33596
2 6.69595 5.44913 4.4298
1 -1.37734 8.73903 -4.35649
2 -8.0304 3.07067 4.54312
3 -6.67492 -5.40349 -4.32145
1 1.45018 -8.53269 4.46941
2 7.96738 -3.06451 -4.43251
2 5.26624 4.64703 6.52157
2 -1.39601 6.98955 -6.56805
2 -6.66884 2.23683 6.66858
3 -5.44218 -4.7793 -6.65456
2 1.30109 -7.20286 6.79729
1 6.77381 -2.25877 -6.63046
1 3.9425 3.95479 8.84006
1 -1.40783 5.51851 -8.97893
1 -5.30444 1.52662 8.77439
2 -4.06452 -3.95556 -8.67249
2 1.05457 -5.53477 8.95309
2 5.40012 -1.4783 -8.88696
2 6.96345 8.62381 2.08188
2 -4.09952 10.2471 -2.21492
3 -10.6808 1.5039 2.30715
3 -6.70632 -8.70321 -2.04952
2 4.09281 -10.2547 2.25497
3 10.7577 -1.55566 -2.53412
2 5.32801 7.80269 4.36309
2 -4.01324 8.58214 -4.53113
2 -9.39097 0.800053 4.54752
3 -5.38244 -7.91162 -4.30314
3 4.16203 -8.72625 4.31084
3 9.29693 -0.757093 -4.45197
3 4.00896 7.05238 6.65156
2 -4.08382 6.98249 -6.63474
3 -8.1017 -0.122682 6.67034
3 -4.17211 -7.11932 -6.588
2 4.07553 -7.30643 6.56043
3 8.27233 -0.0277853 -6.63426
2 2.71123 6.13066 8.75781
3 -4.01778 5.56602 -8.84015
1 -6.73473 -0.819193 8.83287
3 -2.79658 -6.39703 -8.79226
2 4.15439 -5.55905 8.9725
2 6.75288 1.01703 -8.96058
2 16.0234 0.0702426 -0.0388666
1 8.39239 14.0639 0.221121
1 -8.12169 13.8552 -0.160338
1 -16.1231 -0.255327 0.135455
1 -8.30398 -14.1421 -0.0387277
1 8.1336 -14.0735 -0.0547605
1 8.09646 -4.62359 13.3629
3 -0.0645023 9.44047 13.222
1 -8.1146 -4.82822 13.3396
1 -0.0252814 -9.33051 -13.0474
1 8.24213 4.7409 -13.2386
2 -8.01657 4.70649 -12.9491
3 14.8567 2.37048 0.0753393
2 14.7374 -0.839789 2.2067
2 14.8112 0.708326 -2.3246
2 5.38032 14.0655 0.341666
3 6.77518 13.3657 2.29063
3 8.05604 12.4856 -2.1322
1 -9.53462 11.498 0.00633852
2 -6.81073 13.2269 2.09443
2 -8.01059 12.226 -2.33828
2 -14.7068 -2.50482 0.170499
3 -14.7985 -0.899078 2.38095
2 -14.8996 0.686251 -2.11392
1 -5.39828 -14.1902 -0.0454163
2 -8.18943 -12.5347 2.3118
1 -6.8482 -13.431 -2.20302
1 9.50279 -11.7528 -0.00266142
2 7.91487 -12.3862 2.11579
2 6.79203 -13.4202 -2.28569
2 6.54082 -2.37199 13.2151
2 5.25839 -4.72891 13.4266
1 -1.47203 7.17644 13.1227
1 1.29174 -6.98304 -13.3667
1 -1.41634 -6.9299 -13.2299
1 5.48692 4.65389 -13.4216
3 13.6314 4.54757 0.0782533
3 13.3049 -1.45069 4.16256
1 13.4974 1.49115 -4.58191
1 2.70452 13.9253 0.103774
1 5.42162 12.5537 4.57511
1 8.03306 10.8946 -4.39551
2 -10.7483 9.20773 0.040342
1 -5.47575 12.4634 4.39668
2 -8.279 10.9066 -4.618
2 -13.5079 -4.7117 -0.0181663
2 -13.5205 -1.44891 4.5309
2 -13.658 1.40087 -4.303
3 -2.66125 -14.1794 0.0975166
2 -8.09955 -10.8684 4.6224
1 -5.16379 -12.5602 -4.30067
3 10.7726 -9.38151 -7.76835e-05
2 8.24441 -10.9003 4.31341
2 5.44682 -12.54 -4.40355
3 5.41928 0.0450218 13.4379
1 2.56987 -4.73814 13.2897
3 -2.67841 4.56661 13.0467
1 2.83042 -4.75555 -13.1712
3 -2.67098 -4.65191 -13.1198
2 2.67786 4.66888 -13.3937
1 12.1857 6.94156 -0.0942816
1 12.0526 -2.41706 6.6171
2 12.0502 2.43461 -6.68795
3 0.0189669 14.0978 -0.00192159
3 4.1296 11.7944 6.77954
2 8.18143 9.40864 -6.56542
2 -12.101 6.89719 -0.125443
2 -4.06672 11.8002 6.78029
1 -8.26067 9.26615 -6.69263
3 -12.2442 -7.02185 -0.0345991
1 -12.1472 -2.416 6.48064
2 -12.0094 2.30531 -6.63624
2 -0.058249 -14.2447 -0.104486
3 -8.00728 -9.34753 6.67452
2 -3.95691 -11.793 -6.65067
2 12.0429 -6.99228 0.0905298
2 8.15503 -9.44894 6.53229
3 4.17452 -11.707 -6.59937
1 4.07959 2.23827 13.2302
3 -0.0220414 -4.6745 13.3945
1 -3.92986 2.26554 13.2285
1 4.00689 -2.2118 -13.3183
2 -3.95476 -2.32222 -13.1221
2 0.113359 4.52846 -13.407
1 10.936 9.39142 0.0331523
3 10.7506 -3.23793 8.79385
2 10.8897 3.34388 -9.06727
2 -2.72829 13.9087 0.0550554
3 2.81407 10.89 8.8871
2 8.17519 7.72004 -8.91226
1 -13.4301 4.56761 0.0605955
3 -2.80018 10.8833 8.87443
2 -8.13313 7.98281 -8.91612
2 -10.7752 -9.25061 0.280073
3 -10.6297 -3.21545 8.82815
3 -10.5425 2.97241 -8.73978
1 2.65225 -14.1202 -0.135165
1 -8.10959 -7.78128 8.83392
2 -2.75734 -10.9597 -8.89236
2 13.3798 -4.84421 -0.0984027
1 8.0939 -8.08048 8.77322
3 2.77546 -10.9633 -8.92278
2 2.70613 4.70779 13.329
1 -2.62615 -4.69865 13.3208
2 -5.27613 -0.220958 13.3371
2 5.36573 0.0843319 -13.326
3 -5.33595 -0.000775185 -13.3588
2 -2.59426 4.56284 -13.269
2 9.77054 11.8981 0.0994972
2 9.36587 -3.99254 11.0179
2 9.3976 4.0719 -11.0195
2 -5.35469 14.0023 -0.0132188
3 1.42181 10.2368 11.1049
3 8.04379 6.33106 -10.9752
2 -14.808 2.27265 0.0353869
2 -1.19136 10.2653 11.0593
1 -8.11008 6.20482 -11.0818
1 -9.47285 -11.6656 0.00283245
2 -9.4491 -4.06664 10.9099
3 -9.47049 3.82718 -10.9109
2 5.28449 -14.0945 0.000377537
3 -8.24367 -6.35773 10.9886
3 -1.29032 -10.2291 -10.9089
2 14.7855 -2.3785 -0.146969
3 8.13043 -6.23962 11.2687
2 1.47993 -10.1861 -11.0876
2 1.27989 7.03347 13.3062
2 -5.45412 -4.98735 13.297
2 -6.73853 -2.53442 13.2992
2 6.78206 2.32634 -13.4681
1 -6.61288 2.22643 -13.0218
1 -5.3579 4.71992 -13.2526
2 13.5441 3.04596 -2.3357
1 4.06106 13.2529 2.38502
2 -9.43778 10.0222 -2.19992
2 -13.5909 -3.17056 2.39993
2 -3.89524 -13.3384 -2.28748
2 9.59966 -10.2594 2.09097
1 4.07924 -2.36101 13.1569
3 -0.029343 -4.68101 -13.3066
2 12.2063 3.96603 -4.48335
1 2.67854 12.6278 4.63147
2 -9.50563 8.50535 -4.4357
2 -12.2123 -3.85558 4.28246
3 -2.48619 -12.5049 -4.38606
2 9.52306 -8.70019 4.27766
2 1.30848 -2.44755 13.3454
2 -1.4714 -2.3351 -13.3255
2 10.7941 4.76968 -6.70678
3 1.34687 11.6915 6.71847
1 -9.45068 6.84453 -6.68041
2 -10.7157 -4.58223 6.81244
2 -1.38813 -11.6983 -6.75882
2 9.43326 -6.97668 6.64162
1 -1.22424 -2.30813 13.256
2 -2.6446 0.161782 -13.1344
3 9.5778 5.54268 -8.79706
2 0.0619676 10.8841 8.82455
2 -9.46886 5.31978 -8.87685
3 -9.35213 -5.43149 8.75626
1 0.0300458 -10.9063 -8.88835
1 9.52607 -5.67387 9.0061
2 -4.09123 -2.49402 13.3308
3 -3.98015 2.41739 -13.2877
2 13.4767 1.6417 2.19308
1 5.27169 12.5265 -2.04366
1 -8.07418 10.8898 2.1548
2 -13.3238 -1.62973 -1.96335
3 -5.44483 -12.6158 2.09807
1 8.08281 -10.9926 -2.34804
1 11.8732 0.918156 4.24793
1 5.26344 10.996 -4.56975
3 -6.66424 10.1095 4.5089
2 -12.0624 -0.789403 -4.34532
2 -5.30455 -10.9823 4.35161
2 6.67894 -10.1444 -4.40236
3 10.7145 -0.142519 6.64408
1 5.48827 9.50682 -6.9153
1 -5.4425 9.48165 6.78842
3 -10.771 -0.0996643 -6.5795
3 -5.44315 -9.33802 6.61094
3 5.38947 -9.31847 -6.55171
1 9.4436 -0.911829 8.85647
2 5.47556 8.04165 -8.9341
2 -3.96662 8.74967 8.8679
2 -9.31922 0.736016 -8.70427
2 -5.53932 -7.84733 8.85219
1 4.02631 -8.60737 -8.81198
2 8.21172 -1.48668 11.0277
3 5.71759 6.36821 -10.805
2 -2.78444 7.78293 11.0932
3 -7.86937 1.4089 -11.0202
3 -5.41765 -6.35561 11.2359
2 2.64316 -7.66286 -11.0023
2 12.1818 5.37585 -2.23412
2 1.50662 13.1456 2.13207
3 -10.7162 7.64148 -2.30374
1 -12.1548 -5.50167 1.93169
2 -1.30034 -13.3218 -2.19426
3 10.7602 -7.857 2.19111
2 2.77458 0.0479012 13.211
1 1.42454 -2.37154 -13.1717
2 10.7934 6.36465 -4.61091
2 0.18301 12.3806 4.54023
2 -10.7835 6.18664 -4.37997
1 -10.8671 -6.08348 4.42141
2 0.138733 -12.4343 -4.30257
2 10.6388 -6.10971 4.24197
3 0.0530679 -0.0960889 13.1064
1 0.100838 -0.102531 -13.2428
3 9.51689 7.02618 -6.88668
3 -1.24367 11.7768 6.61859
2 -10.7949 4.71772 -6.79896
2 -9.46717 -7.06326 6.68235
2 1.48269 -11.6779 -6.51183
3 10.7284 -4.74174 6.63911
3 -2.76701 -0.0847441 13.1991
1 -1.14457 2.19685 -13.1735
2 12.0967 3.94543 2.19924
2 2.71745 12.5695 -2.1314
3 -9.32381 8.50445 2.33754
3 -12.2029 -3.90073 -2.07571
2 -2.74133 -12.4955 2.05066
1 9.48605 -8.64704 -2.14248
1 10.7226 3.18391 4.33748
3 2.66805 10.9918 -4.35177
2 -8.13852 7.84024 4.39172
2 -10.7388 -3.1951 -4.3567
2 -2.64598 -11.0025 4.32227
3 8.08145 -7.97655 -4.29807
3 9.45289 2.20303 6.64916
2 2.63415 9.36649 -6.56507
2 -6.74515 7.1764 6.68788
2 -9.35223 -2.36458 -6.60577
3 -2.83641 -9.41843 6.75243
1 6.76041 -7.06624 -6.62988
1 8.03156 1.43855 8.9531
1 2.61956 7.99943 -8.85002
1 -5.4604 6.27597 8.79041
3 -8.11024 -1.68267 -8.84166
3 -2.82846 -7.79036 8.8746
2 5.43315 -6.21765 -8.7602
2 6.75113 0.675611 11.105
2 2.77619 6.27441 -11.0616
2 -4.1458 5.48051 11.0809
2 -6.64763 -0.780062 -10.9811
2 -2.84428 -6.31301 11.0447
2 4.19849 -5.2594 -11.0345
2 10.9775 7.77782 -2.31372
1 -1.47499 13.2384 2.28821
1 -12.0759 5.41397 -2.31139
2 -10.8843 -7.87803 2.37366
2 1.36264 -13.2738 -2.14719
3 12.0067 -5.56495 2.2099
2 1.32234 2.08309 13.051
2 2.85197 0.124861 -13.4879
1 9.45448 8.55618 -4.15514
2 -2.61138 12.3302 4.50444
2 -12.0691 3.92996 -4.45717
2 -9.49401 -8.57113 4.4034
2 2.80772 -12.3281 -4.39934
2 12.0552 -3.8851 4.33322
1 -1.23912 2.22437 13.1958
2 1.44993 2.22776 -13.1894
2 10.8583 6.38067 1.91411
3 0.0962408 12.4443 -2.21921
1 -10.6858 6.24534 2.19933
1 -10.8101 -6.18872 -2.07069
2 0.0307913 -12.5391 2.29744
3 10.7294 -6.24988 -2.22893
2 9.44858 5.47979 4.11224
3 0.203803 10.9617 -4.28703
3 -9.27495 5.36806 4.45093
2 -9.37211 -5.44028 -4.29551
2 -0.0218238 -10.8253 4.46472
3 9.32585 -5.60827 -4.47463
2 8.21106 4.72813 6.69138
3 -0.0408152 9.33166 -6.57381
2 -8.12491 4.68723 6.784
2 -8.04811 -4.86022 -6.34895
2 -0.082681 -9.55914 6.63493
3 8.0854 -4.73907 -6.5873
1 6.63361 3.87353 8.63787
2 -0.0470212 7.88536 -8.72513
2 -6.75813 3.81771 8.88394
2 -6.72585 -3.90756 -8.75774
2 -0.0270361 -7.91151 8.93258
2 6.72911 -3.7284 -8.74161
3 5.52481 3.16223 10.9866
2 0.0119655 6.21964 -11.2887
1 -5.38229 3.11285 11.0924
2 -5.37476 -3.09309 -11.1099
1 -0.103874 -6.4316 11.2131
2 5.48403 -2.89335 -11.0131
2 9.51598 10.2817 -2.18672
3 -3.99733 13.3044 2.32046
2 -13.5314 3.19503 -2.22984
3 -9.22555 -10.232 2.3379
2 4.09214 -13.3792 -2.27407
2 13.2604 -3.15983 2.06018
2 0.0146034 4.63703 13.1515
1 4.14128 2.33408 -13.3055
3 9.59952 8.61153 2.19905
2 -2.74145 12.3488 -2.30973
3 -11.9146 3.82968 2.26536
3 -9.32924 -8.51517 -2.07656
2 2.56864 -12.6711 2.14757
1 12.186 -3.91479 -2.24679
1 8.20033 7.85641 4.2155
3 -2.6993 10.8388 -4.42983
1 -10.8135 3.04545 4.49495
1 -7.87926 -7.89981 -4.16483
2 2.72229 -11.134 4.54434
2 10.8424 -3.17875 -4.56586
1 6.72678 6.93637 6.60023
2 -2.5881 9.46098 -6.69564
2 -9.3951 2.1247 6.7516
2 -6.73537 -7.01399 -6.35579
1 2.77447 -9.48366 6.5545
1 9.49436 -2.49592 -6.60847
3 5.39065 6.22756 8.8525
2 -2.75211 7.92866 -8.82038
2 -7.99236 1.41435 8.98122
2 -5.62008 -6.3158 -8.7862
2 2.82302 -7.89045 8.94187
1 8.04307 -1.4906 -8.96588
1 4.0015 5.33436 11.1452
2 -2.79459 6.13713 -11.0791
2 -6.80943 0.620384 11.28
2 -4.10874 -5.49217 -10.9783
2 2.68934 -6.33342 11.0527
3 6.65994 -0.548106 -11.2213
3 8.30703 11.086 2.23187
3 -5.50653 12.5468 -2.29926
2 -13.3916 1.39942 2.35231
2 -8.19534 -10.8959 -2.10624
3 5.40966 -12.4481 2.07291
2 13.3093 -1.64394 -2.40846
2 6.77247 10.0917 4.46047
2 -5.31206 10.9374 -4.39389
3 -12.1438 0.787346 4.51215
3 -6.6278 -10.2048 -4.43383
1 5.47851 -11.0127 4.48329
2 11.9763 -0.669302 -4.59346
1 5.43579 9.44494 6.58439
1 -5.4964 9.30491 -6.58722
3 -10.8472 0.0717192 6.57318
2 -5.30054 -9.38669 -6.48878
1 5.41972 -9.49643 6.6751
2 10.8148 0.000169484 -6.82106
2 4.03344 8.45717 8.7525
2 -5.52881 7.65973 -8.76076
3 -9.37851 -0.74903 8.7615
2 -4.10697 -8.67987 -8.92119
3 5.30116 -8.09247 8.75743
1 9.24025 0.826153 -9.05292
2 2.63993 7.81151 11.1514
2 -5.52247 6.23758 -10.939
2 -7.99194 -1.64358 11.0054
3 -2.68103 -7.9301 -11.0608
2 5.5414 -6.41715 11.1134
2 7.99723 1.69133 -11.1468
2 18.8252 -0.164879 -0.149198
3 9.33016 16.1851 -0.0575126
3 -9.63148 16.2348 -0.0401499
2 -19.1505 0.0337161 -0.114497
3 -9.67531 -16.3159 0.0516805
1 9.55277 -16.5356 0.045529
1 9.5671 -5.48705 15.5683
1 -0.0149623 10.9243 15.2205
3 -9.50041 -5.30421 15.531
2 0.164798 -10.6773 -15.1474
1 9.63862 5.40983 -15.6775
1 -9.36195 5.38421 -15.4663
1 17.5107 2.28826 0.00116853
2 17.4832 -1.01876 2.12206
3 17.6188 0.746542 -2.23188
2 6.9193 16.3198 0.1939
2 8.25417 15.5145 2.39619
2 9.5802 14.829 -2.17789
1 -10.7421 13.9145 -0.0413697
1 -8.1471 15.653 2.20918
2 -9.4913 14.8133 -2.24354
2 -17.6296 -2.35993 -0.0738611
3 -17.7631 -0.677016 2.16382
3 -17.4283 0.638886 -2.19068
3 -6.7629 -16.4075 -0.010223
3 -9.66085 -14.6704 2.26166
2 -8.06901 -15.6753 -2.27293
3 10.8049 -14.0968 0.0634844
1 9.40967 -15.0199 2.15138
1 8.09028 -15.7606 -2.25228
1 8.01084 -2.96375 15.3886
2 6.88041 -5.38001 15.5575
1 -1.38369 8.56603 15.3663
2 1.50282 -8.53034 -15.6101
3 -1.21455 -8.34353 -15.3812
1 6.91914 5.38076 -15.5073
3 16.2367 4.64742 0.0575111
2 16.1791 -1.57689 4.36099
3 16.112 1.39431 -4.38039
1 4.15058 16.343 0.192208
2 6.74727 14.938 4.54845
1 9.48578 13.3003 -4.35225
2 -12.1866 11.6594 0.0811415
1 -6.70534 14.7507 4.45555
2 -9.48121 13.2631 -4.40571
2 -16.3164 -4.58229 0.235466
1 -16.2804 -1.42769 4.41499
1 -16.4186 1.60763 -4.27301
1 -4.10568 -16.407 -0.140543
2 -9.76688 -13.3572 4.52378
3 -6.5953 -14.8809 -4.41286
2 12.1092 -11.6084 0.101809
2 9.37334 -13.4308 4.12049
3 6.76449 -14.7999 -4.31731
3 6.54609 -0.582213 15.6154
1 4.0971 -5.60554 15.5357
3 -2.74783 6.16988 15.3559
1 2.83724 -6.16733 -15.56
2 -2.5122 -6.1399 -15.3815
1 4.19406 5.5121 -15.4243
2 14.8147 6.95214 0.0240132
1 14.7218 -2.30818 6.49519
1 14.8312 2.38937 -6.75115
2 1.47087 16.3516 0.19872
1 5.44948 14.1636 6.68294
2 9.60464 11.7312 -6.76915
3 -13.5057 9.24608 -0.153977
2 -5.45295 14.1286 6.5722
2 -9.48715 11.5979 -6.73413
2 -14.9531 -6.9399 -0.0250013
2 -14.8176 -2.34038 6.72225
1 -14.7995 2.18539 -6.47493
3 -1.26719 -16.515 0.136728
2 -9.71285 -11.7254 6.78542
3 -5.29833 -14.0711 -6.64497
2 13.4723 -9.34941 0.145586
2 9.44643 -11.866 6.66618
1 5.4589 -14.0292 -6.61448
2 5.48065 1.75501 15.4867
1 1.2743 -5.4088 15.5222
2 -4.00065 4.04942 15.54
3 4.21602 -3.81765 -15.3946
3 -3.95827 -3.89127 -15.4873
1 1.50276 5.49704 -15.605
3 13.6305 9.22799 -0.00223332
1 13.4607 -3.20052 8.77236
3 13.4205 3.3294 -9.02761
3 -1.34613 16.274 -0.00601219
1 4.04916 13.2854 8.9116
2 9.43128 10.1054 -8.9773
2 -14.8651 7.13053 0.0365253
3 -4.02573 13.2727 8.84576
3 -9.51403 10.1396 -8.84861
2 -13.422 -9.31837 0.179554
2 -13.5204 -3.16582 8.6742
2 -13.4938 3.1296 -8.77435
3 1.40889 -16.5574 0.0209142
2 -9.57489 -10.2196 8.83795
3 -3.88508 -13.256 -8.74228
1 14.8326 -7.10862 -0.0418188
3 9.50778 -10.3863 8.95887
3 4.10441 -13.2159 -8.82849
2 3.93882 3.8601 15.5507
3 -1.35848 -5.46312 15.5737
1 -5.34386 1.42462 15.5634
3 5.45293 -1.56961 -15.4895
3 -5.27269 -1.54815 -15.3475
1 -1.29178 5.71077 -15.5099
3 12.272 11.7622 0.0504008
1 12.2097 -3.96145 11.0713
1 12.3093 4.09869 -11.1317
1 -4.07986 16.2787 -0.190723
3 2.77605 12.4633 10.9825
3 9.38839 8.56546 -11.0834
1 -15.9724 4.66429 -0.056374
2 -2.58498 12.6064 10.9322
3 -9.48592 8.51493 -11.0204
2 -12.122 -11.6136 0.161214
2 -12.06 -3.93294 11.1484
2 -11.9237 3.73356 -10.7547
2 4.00093 -16.5933 0.0658051
2 -9.65011 -8.49355 10.9739
1 -2.63024 -12.5427 -11.0251
2 16.1765 -4.65058 -0.148014
1 9.46366 -8.63956 11.0938
2 2.87262 -12.6397 -11.032
3 2.68645 6.25116 15.3642
1 -4.12227 -5.37608 15.3614
1 -6.70533 -0.932189 15.5645
3 6.87959 0.904574 -15.5748
1 -6.76209 0.690541 -15.445
2 -4.12029 5.40582 -15.5454
3 11.0097 14.1149 -0.0300224
1 10.8277 -4.67615 13.1936
2 10.8347 4.808 -13.1879
2 -6.76848 16.3662 0.112756
3 1.34575 11.6969 13.1045
2 9.37956 7.1211 -13.1593
1 -17.4167 2.33148 -0.103382
3 -1.34124 11.7379 13.2551
3 -9.37666 7.01943 -13.2363
2 -10.8481 -13.9911 0.0494296
2 -10.7629 -4.59074 13.353
2 -10.5734 4.67013 -13.2586
2 6.7718 -16.2734 0.0684249
2 -9.38518 -6.93956 13.3264
2 -1.31879 -11.7527 -13.143
3 17.4604 -2.44821 -0.0015451
2 9.56374 -6.95267 13.3324
3 1.58996 -11.568 -13.1533
3 1.31669 8.54035 15.513
1 -6.78041 -5.60002 15.6112
2 -8.24211 -3.08453 15.6989
3 8.32807 3.14711 -15.5272
1 -7.99671 3.01038 -15.3818
2 -6.82731 5.37713 -15.7166
1 16.1273 3.08102 -2.18659
1 5.35544 15.6893 2.47576
2 -10.7158 12.4678 -2.27088