3043
 Atoms. Timestep: 100
2 -0.0858495 0.0764648 0.00505746
3 2.64345 -0.0110735 -0.0932026
2 1.28649 2.10021 0.0646352
2 -1.42751 2.21828 0.00353146
3 -2.6538 -0.0767331 -0.0536945
2 -1.31966 -2.28662 0.023045
2 1.24407 -2.17371 -0.0333558
1 1.20891 -0.765223 1.98167
3 -0.0404814 1.55638 2.11954
2 -1.34476 -0.776109 2.01119
2 0.00865271 -1.43129 -2.14074
3 1.37477 0.707549 -2.01156
2 -1.39108 0.731224 -2.10603
2 5.20591 0.0461359 -0.0653035
2 2.55397 4.54283 0.0676496
1 -2.61798 4.41187 -0.08264
3 -5.22922 0.0138041 -0.151383
1 -2.62098 -4.41783 -0.0484666
2 2.5946 -4.49487 -0.029832
1 2.5683 -1.42466 4.12968
3 0.0181135 3.03111 4.27468
2 -2.67964 -1.47573 4.26577
1 0.00339917 -2.95295 -4.1886
1 2.59493 1.4607 -4.19439
2 -2.69424 1.53714 -4.26521
2 3.88376 2.20306 0.0477108
2 3.9379 -0.756178 2.02793
2 3.8786 0.717795 -2.17788
1 0.0203011 4.37167 0.117916
2 1.3477 3.75893 2.19082
2 2.56248 3.05688 -2.06345
1 -3.87771 2.09458 -0.0525002
2 -1.2596 3.66733 2.17958
1 -2.57162 2.90094 -2.22965
2 -4.02496 -2.24649 -0.0434089
2 -3.91688 -0.806499 2.05864
3 -3.94717 0.660808 -2.22238
2 -0.00622528 -4.48136 -0.0730135
2 -2.69061 -3.01962 2.01506
2 -1.41046 -3.70434 -2.11607
3 3.7955 -2.23623 0.00850309
3 2.48331 -3.00317 2.043
2 1.41253 -3.68512 -2.12992
1 1.29729 0.852955 4.1451
2 -0.0211031 -1.39971 4.16609
1 -1.29771 0.761274 4.09942
1 1.42429 -0.708633 -4.13016
2 -1.38312 -0.788965 -4.31106
1 -0.105833 1.43893 -4.1726
2 2.49002 1.4048 2.11306
1 0.0288274 2.8722 -2.06862
1 -2.5431 1.42545 1.99864
1 -2.5887 -1.50326 -2.06727
3 -0.0273854 -3.01867 2.13603
3 2.651 -1.4496 -2.03317
2 7.86004 0.0479373 -0.0063167
1 3.8508 6.65821 -0.0987637
2 -3.94088 6.7335 0.0671669
1 -7.84335 -0.0199619 -0.0352719
1 -3.87722 -6.80473 -0.0198428
2 3.93493 -6.74727 -0.0771908
2 4.01062 -2.22662 6.42926
1 0.0240243 4.44884 6.40077
2 -3.99038 -2.30248 6.36474
3 -0.0733679 -4.50133 -6.41466
2 3.98609 2.33071 -6.4425
2 -4.04201 2.18014 -6.49727
2 6.66172 2.33833 0.0864048
3 6.60538 -0.764289 2.06707
1 6.47612 0.847643 -2.13404
2 1.20622 6.78293 0.0164969
3 2.57934 6.04898 2.08203
3 3.96689 5.25261 -2.17019
2 -5.42294 4.54721 0.0171508
1 -2.62746 5.83386 2.12105
2 -3.97059 5.10833 -2.09645
2 -6.48959 -2.26771 -0.12123
1 -6.39161 -0.786614 2.03564
2 -6.62587 0.732545 -2.24751
1 -1.2365 -6.78285 -0.0574562
2 -3.98073 -5.30562 2.09166
2 -2.71343 -6.07457 -2.11944
1 5.20432 -4.43951 -0.0505362
2 3.90699 -5.29015 2.08691
3 2.61083 -5.93219 -2.09661
1 2.68198 0.0315393 6.41657
2 1.29764 -2.18439 6.40112
2 -1.22997 2.18683 6.36639
1 1.35883 -2.30473 -6.39649
1 -1.33616 -2.25077 -6.42585
2 1.37104 2.30101 -6.41207
1 5.18581 4.31347 -0.00295879
1 5.22233 -1.48275 4.21175
3 5.19716 1.40136 -4.20755
2 -1.34314 6.82933 0.0520911
1 1.29656 5.28206 4.21815
1 3.97959 3.66494 -4.16535
1 -6.52351 2.24834 -0.0663427
2 -1.30217 5.21886 4.30813
2 -3.94184 3.66242 -4.31126
3 -5.30555 -4.51596 -0.107926
3 -5.25066 -1.59533 4.20689
3 -5.38855 1.42422 -4.35868
2 1.29872 -6.76936 -0.0297356
3 -3.93518 -3.67188 4.22284
1 -1.39581 -5.21649 -4.26388
1 6.48617 -2.25156 0.0124357
1 3.89983 -3.68538 4.11128
1 1.26657 -5.3013 -4.32625
2 1.47859 2.29736 6.42268
1 -1.36637 -2.34057 6.20084
2 -2.67836 -0.020546 6.47051
2 2.63318 0.0574065 -6.36024
2 -2.62269 0.019365 -6.52046
2 -1.28995 2.28393 -6.42238
2 5.30396 3.00352 -2.05847
2 0.0219083 6.0562 2.24721
1 -5.29461 2.95308 -2.18337
3 -5.30855 -3.11917 2.05499
2 0.0122486 -6.03487 -2.17541
2 5.155 -2.90259 2.0969
1 0.00965966 0.0518186 6.34114
2 -0.0193868 -0.00839797 -6.39538
1 5.21158 1.47112 1.97077
1 1.30519 5.26853 -2.02851
2 -4.12296 3.77541 2.09109
2 -5.29714 -1.48056 -2.19844
2 -1.29452 -5.37062 2.05795
3 3.98665 -3.88605 -2.16189
1 3.85208 0.876781 4.15325
1 1.30793 3.71794 -4.20142
2 -2.63398 2.97671 4.21696
2 -3.90058 -0.682536 -4.31862
2 -1.34012 -3.77277 4.12737
1 2.6649 -2.96179 -4.21327
2 3.94398 3.80342 2.21425
3 -1.27648 5.3749 -2.08449
2 -5.28273 1.47439 2.0203
3 -4.03705 -3.81154 -2.14296
2 1.29708 -5.24101 2.03911
1 5.05625 -1.53449 -2.13543
3 2.62236 3.0487 4.25631
3 -1.28142 3.7215 -4.23956
1 -3.95334 0.696529 4.19601
2 -2.69709 -3.02394 -4.26377
2 1.18682 -3.76802 4.1931
3 3.99615 -0.787341 -4.21124
2 10.5903 0.0191212 -0.0605311
1 5.25306 9.23066 0.0335317
3 -5.35581 9.13457 -0.00941338
2 -10.4584 -0.032275 -0.125093
2 -5.25284 -9.13747 -0.00961221
1 5.2264 -9.21347 0.023556
2 5.2493 -3.04962 8.59106
2 0.0921047 6.01779 8.56067
2 -5.19462 -3.00049 8.58181
3 -0.03676 -6.02247 -8.60191
1 5.27428 3.03263 -8.51958
2 -5.24444 3.06779 -8.67444
2 9.258 2.29992 0.0347067
2 9.236 -0.698448 2.18549
1 9.21394 0.780332 -2.16044
1 2.62657 9.11575 -0.0854225
1 3.93937 8.29294 2.16653
2 5.24088 7.65111 -2.1724
2 -6.63575 6.77441 -0.00819298
1 -4.02757 8.26985 2.10119
1 -5.26841 7.51572 -2.06463
3 -9.23884 -2.28327 0.0406453
2 -9.15597 -0.744295 2.09605
3 -9.18549 0.712066 -2.19404
3 -2.62975 -9.10994 -0.0196242
1 -5.26263 -7.59129 2.13731
1 -3.93141 -8.21695 -2.16965
2 6.62413 -6.7746 -0.0305297
2 5.13727 -7.62624 2.1688
1 3.8873 -8.34955 -2.12575
2 3.90427 -0.684075 8.66993
2 2.62077 -3.0908 8.67265
2 -1.33816 3.78645 8.56998
2 1.30796 -3.86826 -8.5533
2 -1.32667 -3.8001 -8.59652
2 2.65008 3.0705 -8.59574
3 7.95971 4.58387 0.0410797
1 7.90516 -1.48238 4.34619
3 7.87457 1.48599 -4.22281
3 -0.0426425 9.13408 -0.0796617
3 2.59161 7.66817 4.23622
2 5.19879 6.04295 -4.2771
3 -8.02195 4.53879 -0.0375787
1 -2.67074 7.51327 4.27887
1 -5.16672 5.99496 -4.28064
1 -7.84835 -4.51958 -0.0585944
1 -7.89867 -1.54748 4.23992
2 -7.98489 1.58217 -4.31352
1 0.0263715 -9.17853 0.0745154
1 -5.20363 -5.99175 4.34669
3 -2.59057 -7.65714 -4.27875
3 7.85448 -4.56574 -0.142143
2 5.12626 -6.08285 4.29276
1 2.57793 -7.52017 -4.34841
3 2.63883 1.51493 8.66581
1 0.00375478 -3.04324 8.56821
2 -2.60901 1.54507 8.61812
2 2.62189 -1.5831 -8.69608
2 -2.66634 -1.5082 -8.69013
3 -0.00680884 2.98765 -8.65393
2 6.58683 6.83898 0.0967251
3 6.61288 -2.19724 6.47399
1 6.67158 2.19313 -6.37575
2 -2.67953 9.20322 0.0031415
3 1.33929 6.83171 6.38685
1 5.28694 4.56011 -6.37674
2 -9.19171 2.2391 -0.0717186
1 -1.21089 6.90036 6.44568
2 -5.33957 4.48656 -6.41409
1 -6.57299 -6.88319 -0.0639036
2 -6.58891 -2.27521 6.39709
3 -6.63313 2.29062 -6.43922
2 2.64852 -9.27041 0.0555943
3 -5.23354 -4.52052 6.58991
1 -1.31293 -6.83623 -6.45657
2 9.19676 -2.2373 -0.066415
1 5.32344 -4.55745 6.44878
3 1.2705 -6.80564 -6.44047
2 1.34253 3.70846 8.57081
2 -2.63678 -3.01103 8.54287
3 -3.99705 -0.689412 8.62352
3 3.86972 0.726416 -8.5392
2 -3.9563 0.721029 -8.66307
3 -2.58239 2.97837 -8.52022
3 7.89692 3.03214 -2.02291
1 1.28264 8.32809 2.1348
2 -6.63353 5.19476 -2.18637
2 -7.85208 -3.0416 2.16089
2 -1.35166 -8.32973 -2.07402
1 6.4434 -5.2459 2.10966
1 1.4162 -0.72292 8.66621
1 0.0350615 -1.47771 -8.61777
2 6.55526 3.72599 -4.22126
3 0.00992667 7.57256 4.31716
3 -6.66144 3.75867 -4.36774
2 -6.51583 -3.80032 4.29072
2 -0.00459751 -7.56491 -4.29378
2 6.571 -3.78297 4.34917
1 -1.3592 -0.743292 8.52412
3 -1.36986 0.824848 -8.66102
3 7.93095 1.54367 2.16946
2 2.61452 7.63638 -2.1295
3 -5.32201 6.00059 2.20295
2 -7.98569 -1.53434 -2.13065
1 -2.4861 -7.56959 2.21234
3 5.32562 -5.95871 -2.21446
1 6.55344 0.830512 4.25329
1 2.61268 6.01908 -4.14805
1 -4.00358 5.22902 4.32977
2 -6.64629 -0.799336 -4.33511
3 -2.63998 -5.96937 4.25503
3 3.9556 -5.25003 -4.33842
2 5.31674 0.0405679 6.40473
3 2.67543 4.56734 -6.45125
1 -2.60028 4.5561 6.36133
1 -5.35567 -0.00255012 -6.49347
2 -2.6136 -4.58159 6.36536
1 2.57026 -4.58181 -6.41041
2 6.60875 5.29669 -2.10132
1 -1.33684 8.25812 2.19148
3 -7.96508 3.02553 -2.19872
2 -6.53857 -5.34612 1.99768
1 1.32283 -8.22763 -2.1106
1 7.81882 -3.02358 2.10332
3 -0.00416368 1.55573 8.62805
2 1.28979 0.775729 -8.57533
1 6.57143 3.81781 2.19607
3 0.00313909 7.68865 -2.06409
3 -6.70925 3.78864 2.1366
3 -6.55593 -3.78499 -2.21951
3 -0.0101853 -7.62619 2.19213
3 6.58063 -3.7712 -2.18735
2 5.28955 2.99788 4.27285
3 0.00437839 6.01617 -4.21129
1 -5.27837 2.93857 4.1949
1 -5.27814 -3.02482 -4.25131
2 -0.0726578 -6.11041 4.18854
2 5.19653 -3.033 -4.26676
3 4.06252 2.29311 6.52271
1 0.00817604 4.4458 -6.41624
1 -3.89666 2.21436 6.41771
1 -3.89804 -2.21152 -6.49842
2 0.00871799 -4.59986 6.4684
2 4.00467 -2.22577 -6.36132
2 5.14025 6.08768 2.0635
2 -2.64261 7.63965 -2.10033
2 -7.8858 1.53116 2.09361
3 -5.3495 -6.01428 -2.17098
1 2.59738 -7.61948 2.06893
1 7.77661 -1.48172 -2.14184
2 3.85143 5.35869 4.20468
2 -2.63292 6.01788 -4.29864
3 -6.62345 0.729757 4.18614
2 -3.96802 -5.35653 -4.30771
1 2.54522 -5.99302 4.24955
2 6.67766 -0.787557 -4.31499
3 2.63828 4.59954 6.41663
2 -2.69592 4.56574 -6.40466
1 -5.25264 -0.0765311 6.37021
3 -2.71715 -4.60021 -6.48637
1 2.62239 -4.46032 6.42296
1 5.23166 -0.0459361 -6.37656
2 13.2706 0.0267134 0.0615955
3 6.62086 11.5369 0.140817
2 -6.62711 11.442 -0.075054
2 -13.1606 -0.0534676 0.0424949
2 -6.68839 -11.5661 -0.0594826
3 6.64186 -11.5612 0.0466822
2 6.61208 -3.78647 10.7539
1 -0.110496 7.73808 10.8369
2 -6.64232 -3.82915 10.7736
1 -0.0082655 -7.71306 -10.8374
2 6.70238 3.86011 -10.8306
2 -6.62724 3.77763 -10.8004
3 11.9218 2.20088 0.0430313
2 11.9641 -0.762126 2.08314
2 11.8914 0.835398 -2.20029
2 3.9416 11.5439 0.0185048
2 5.2103 10.6431 2.16432
1 6.60346 9.99953 -2.08945
1 -7.90098 9.14651 0.00412242
1 -5.26831 10.739 2.07182
3 -6.61972 9.90966 -2.22768
2 -11.8535 -2.36103 -0.0431456
2 -11.9192 -0.825966 2.22121
1 -11.791 0.720125 -2.22463
2 -3.89141 -11.4193 0.0638939
1 -6.56519 -10.0422 2.05148
2 -5.32027 -10.6981 -2.16304
1 7.93519 -9.23496 0.084383
2 6.54272 -9.97371 2.14258
2 5.4018 -10.7772 -2.04864
2 5.17006 -1.49251 10.8667
2 3.8742 -3.85802 10.8495
1 -1.27164 5.35026 10.7863
1 1.36348 -5.36728 -10.7879
2 -1.27321 -5.50685 -10.7819
2 3.98388 3.84928 -10.9168
1 10.6025 4.53354 0.110678
3 10.549 -1.52398 4.23911
3 10.5886 1.60049 -4.29462
1 1.36265 11.5071 0.0231284
1 3.8897 9.93887 4.27834
1 6.66799 8.38526 -4.35121
2 -9.22533 6.75674 -0.00667162
1 -4.01349 9.75965 4.36083
2 -6.55431 8.2926 -4.27703
1 -10.458 -4.52786 0.040016
3 -10.5118 -1.54887 4.29689
3 -10.5794 1.4898 -4.37829
3 -1.28679 -11.4515 0.0198786
2 -6.58754 -8.43681 4.33326
2 -3.93886 -9.85051 -4.37093
1 9.33838 -6.85467 -0.0151946
1 6.59472 -8.45003 4.252
2 4.00889 -9.95215 -4.32676
3 3.86227 0.778403 10.7943
3 1.31818 -3.89643 10.8326
2 -2.6297 3.10477 10.7724
2 2.73755 -3.18905 -10.8354
2 -2.57627 -3.04758 -10.7611
2 1.37363 3.80722 -10.7756
1 9.22452 6.89636 0.0726625
2 9.19562 -2.29362 6.43781
2 9.14839 2.16922 -6.47714
2 -1.2881 11.438 0.0411262
3 2.5916 9.14591 6.48185
2 6.59904 6.95658 -6.50558
1 -10.6176 4.45964 -0.00805668
1 -2.62291 9.2008 6.57185
2 -6.59352 6.86581 -6.51172
1 -9.25689 -6.92236 -0.0490605
1 -9.26118 -2.23938 6.45524
1 -9.23137 2.31164 -6.46907
3 1.32141 -11.5106 0.00156375
1 -6.52219 -6.93619 6.44203
2 -2.53585 -9.12024 -6.50786
1 10.612 -4.54136 -0.0242896
2 6.50281 -6.84401 6.49277
2 2.63524 -9.12637 -6.49478
2 2.68057 3.02799 10.8217
1 -1.28422 -3.84878 10.7388
2 -3.92901 0.817132 10.7878
1 3.93314 -0.798279 -10.7959
2 -3.9585 -0.844371 -10.8414
2 -1.2538 3.8337 -10.8082
1 7.91517 9.16598 0.0183686
2 7.89552 -3.0288 8.50548
3 7.98042 3.08919 -8.69162
2 -3.96516 11.5325 0.0233137
1 1.28645 8.35239 8.64043
2 6.61027 5.36293 -8.75468
2 -11.9663 2.34377 0.0261361
2 -1.32738 8.51162 8.60652
3 -6.62821 5.37214 -8.6885
3 -7.91448 -9.18732 0.0461181
1 -7.91453 -3.03845 8.70232
2 -7.91789 2.98583 -8.59023
3 3.98619 -11.6018 0.0661147
2 -6.65445 -5.40487 8.60825
3 -1.23511 -8.55343 -8.73425
1 11.9711 -2.22125 -0.0318685
2 6.59678 -5.33914 8.60212
1 1.37972 -8.46 -8.58622
2 1.35199 5.31589 10.7481
2 -3.96165 -3.85305 10.815
2 -5.20655 -1.48764 10.8266
1 5.23013 1.53183 -10.8135
2 -5.222 1.48707 -10.8183
1 -3.91984 3.84448 -10.8101
1 10.5861 3.06038 -2.11279
3 2.62375 10.7728 2.13938
1 -8.03177 7.61982 -2.12518
2 -10.5631 -3.01056 2.14977
1 -2.61109 -10.5281 -2.17691
2 8.02865 -7.65964 2.10131
3 2.63403 -1.56222 10.7601
2 0.0250747 -3.07241 -10.8428
1 9.16518 3.67466 -4.33936
2 1.31442 9.93162 4.28144
1 -7.92004 6.01349 -4.39904
2 -9.22564 -3.84084 4.28576
2 -1.19761 -9.87731 -4.28558
2 7.8873 -6.1166 4.28264
3 0.0912032 -1.49039 10.7563
1 -1.34725 -0.754089 -10.8324
2 7.90646 4.49261 -6.45865
2 0.0113687 9.15584 6.37486
2 -7.95785 4.55154 -6.49219
1 -7.84241 -4.59345 6.46376
3 0.08788 -9.13766 -6.3996
3 8.00158 -4.64791 6.41994
2 -2.56003 -1.46182 10.7644
2 -2.65552 1.61016 -10.7867
3 10.5104 1.59581 2.11172
3 3.87628 9.96841 -2.15611
2 -6.63306 8.23169 2.1777
2 -10.5796 -1.65213 -2.1732
2 -3.91137 -9.8416 2.20971
1 6.5729 -8.38704 -2.127
2 9.17923 0.793396 4.27895
1 3.98535 8.41519 -4.25595
3 -5.26415 7.59637 4.39682
2 -9.25165 -0.744991 -4.33383
1 -3.94917 -8.37879 4.31574
1 5.23873 -7.60402 -4.29377
3 7.94159 0.0530736 6.5215
2 3.92167 6.87001 -6.43038
1 -3.926 6.93401 6.56646
2 -7.88414 0.080235 -6.58721
1 -3.97122 -6.81658 6.48482
1 3.95041 -6.8363 -6.52176
1 6.54152 -0.768325 8.56278
2 3.89583 5.36731 -8.4885
1 -2.62326 6.19999 8.72091
1 -6.59756 0.732363 -8.69299
2 -3.91015 -5.31579 8.60239
2 2.59989 -6.2202 -8.64747
3 9.21779 5.30598 -2.13777
2 -0.0240736 10.5369 2.17894
2 -9.24237 5.203 -2.20178
2 -9.17655 -5.44442 2.15783
2 0.0613288 -10.5947 -2.09898
1 9.21268 -5.31317 2.16407
3 1.36064 0.761487 10.746
2 1.30298 -0.781006 -10.8124
2 8.03689 6.02189 -4.32731
2 -1.442 9.79944 4.29961
3 -9.27047 3.766 -4.34511
3 -7.8473 -6.14169 4.24013
3 1.44456 -9.90373 -4.26808
2 9.24144 -3.74961 4.25163
2 -1.25493 0.755772 10.7748
2 -0.0530694 1.58059 -10.8572
2 9.18246 3.81138 2.12462
2 1.32579 10.0053 -2.08177
2 -7.98825 6.00483 2.19711
2 -9.28075 -3.89986 -2.09201
3 -1.31996 -9.91114 2.233
2 7.88853 -6.02467 -2.21822
2 7.92713 3.04807 4.35415
1 1.25346 8.30863 -4.23251
3 -6.56493 5.27604 4.38902
2 -7.95385 -3.08005 -4.36779
3 -1.22882 -8.4657 4.30629
2 6.5872 -5.35933 -4.3541
2 6.57686 2.28475 6.47459
2 1.24766 6.71527 -6.36152
2 -5.38195 4.55497 6.47023
2 -6.51403 -2.33354 -6.5084
1 -1.2857 -6.8497 6.36757
2 5.22702 -4.56101 -6.58002
3 5.18048 1.54192 8.66446
2 1.35672 5.38663 -8.56267
3 -3.93294 3.91705 8.63602
3 -5.32871 -1.60915 -8.72187
2 -1.28956 -5.32487 8.62199
1 3.99048 -3.75727 -8.54615
2 7.91881 7.57209 -2.15143
3 -2.69246 10.6652 2.09493
1 -10.5495 3.02931 -2.22948
3 -7.9164 -7.72646 2.14646
2 2.73069 -10.722 -2.06827
2 10.6365 -3.06636 2.08961
3 -0.0670954 2.99964 10.7354
2 2.66575 1.46858 -10.7625
2 7.9261 6.12457 2.21922
2 -1.33058 9.9318 -2.12992
3 -9.21491 3.86359 2.09061
3 -7.96025 -6.14469 -2.16451
2 1.30399 -10.0236 2.16629
2 9.21572 -3.77127 -2.22004
2 6.56138 5.44094 4.33052
2 -1.4196 8.31301 -4.29799
2 -7.85777 3.08385 4.24469
2 -6.62658 -5.37224 -4.31796
2 1.28944 -8.44053 4.27635
1 7.85672 -3.1083 -4.34485
1 5.16369 4.56133 6.30185
2 -1.28384 6.85665 -6.44813
2 -6.5836 2.25027 6.43866
1 -5.29152 -4.60078 -6.48934
1 1.27552 -6.84548 6.39282
2 6.65122 -2.3009 -6.58579
2 4.00654 3.75262 8.54553
2 -1.33843 5.32328 -8.64373
2 -5.21376 1.61306 8.58519
2 -3.94458 -3.84406 -8.61969
1 1.25615 -5.38064 8.63091
2 5.25046 -1.49822 -8.69675
2 6.62682 8.40324 2.21719
1 -3.94735 9.86078 -2.14292
1 -10.5216 1.49586 2.05886
1 -6.68203 -8.35487 -2.19622
3 3.93935 -9.96161 2.11987
1 10.535 -1.49244 -2.13796
2 5.28749 7.70289 4.29235
3 -3.94457 8.38925 -4.35001
2 -9.1818 0.732268 4.33376
2 -5.34835 -7.61789 -4.3648
3 3.83843 -8.41269 4.20818
1 9.19721 -0.795081 -4.33168
2 3.95469 6.84714 6.36259
2 -3.9161 6.9084 -6.46445
1 -7.82596 0.00794514 6.4269
2 -3.93967 -6.83979 -6.54075
3 3.91402 -6.89114 6.51101
3 7.9269 -0.0534067 -6.49246
2 2.64708 6.05479 8.56022
1 -3.92615 5.30559 -8.57385
2 -6.54578 -0.649223 8.67229
1 -2.64157 -6.164 -8.68163
3 4.00069 -5.33774 8.64438
1 6.58696 0.74709 -8.68337
2 16.0445 -0.0466208 0.0564475
2 8.00157 13.8961 -0.010826
2 -8.14476 13.9768 -0.0806135
2 -16.0799 0.0216754 -0.0436927
2 -7.93764 -13.8799 0.0760142
3 8.05263 -13.857 0.0774196
1 8.08528 -4.66536 13.0877
2 -0.099091 9.30684 12.9786
2 -7.98436 -4.64351 13.0124
1 0.029433 -9.17923 -13.1385
3 7.86861 4.66845 -13.0287
3 -7.94162 4.58385 -13.0699
1 14.6798 2.24482 -0.00936269
1 14.5911 -0.816567 2.21518
2 14.675 0.720004 -2.08821
3 5.31357 13.7731 0.0836388
2 6.70142 13.0875 2.10868
2 7.92399 12.2656 -2.14331
1 -9.27271 11.6842 -0.053418
1 -6.72058 13.1406 2.08914
2 -8.02893 12.2603 -2.20082
3 -14.6036 -2.29334 0.000402858
2 -14.6876 -0.829289 2.15518
2 -14.7309 0.760752 -2.20731
1 -5.31304 -13.8572 0.0269174
1 -7.92673 -12.3093 2.19194
3 -6.60118 -13.0576 -2.13231
3 9.2969 -11.6214 0.139503
2 7.96021 -12.3441 2.22353
3 6.59639 -13.0845 -2.16794
2 6.64304 -2.34922 13.1374
1 5.26724 -4.65058 12.9736
2 -1.39059 6.85528 12.9897
3 1.42996 -6.79156 -13.0645
3 -1.39822 -6.89274 -13.0765
2 5.29041 4.57609 -13.1974
2 13.3082 4.52498 0.0588841
1 13.2783 -1.51594 4.29522
2 13.3385 1.4888 -4.31666
3 2.62673 13.8637 -0.0433613
2 5.25711 12.376 4.21969
1 8.05581 10.6758 -4.43888
2 -10.6589 9.25318 0.133901
1 -5.38533 12.204 4.26565
1 -8.03218 10.6547 -4.3449
2 -13.2266 -4.55494 -0.0234758
1 -13.3463 -1.55074 4.3973
3 -13.1791 1.49874 -4.29751
2 -2.65299 -13.7644 0.0341056
3 -7.94632 -10.8679 4.30659
2 -5.38786 -12.2901 -4.28443
3 10.597 -9.15515 -0.0435955
2 8.05014 -10.6582 4.30985
3 5.24764 -12.3006 -4.16236
3 5.26452 -0.11386 13.1119
3 2.60286 -4.61412 13.0373
1 -2.61901 4.6423 12.9397
2 2.76792 -4.51733 -13.0026
2 -2.60384 -4.6116 -13.0132
3 2.65848 4.6456 -12.9604
2 11.9242 6.86893 0.0540612
3 11.8035 -2.39596 6.45574
2 11.9204 2.29938 -6.4168
2 0.000894103 13.8877 -0.0318835
1 3.91861 11.5677 6.48138
2 7.94341 9.24405 -6.65614
2 -11.9056 6.9361 0.0407094
1 -4.05289 11.4761 6.59134
2 -8.05689 9.14401 -6.50901
2 -11.972 -6.9875 -0.038457
2 -11.9239 -2.30436 6.51141
1 -11.9492 2.26974 -6.49363
2 0.00518142 -13.7899 -0.06233
2 -7.90883 -9.22762 6.48949
1 -3.93415 -11.4184 -6.54842
3 11.9549 -6.93216 -0.050739
2 7.99187 -9.28374 6.48899
3 3.9523 -11.54 -6.49049
1 3.88594 2.23056 12.9634
3 0.00719767 -4.57044 12.8317
2 -3.84542 2.40622 13.014
1 4.03371 -2.33129 -12.9784
1 -3.85786 -2.36425 -13.0039
2 -0.00225899 4.61244 -13.0576
1 10.6864 9.17343 0.0724412
2 10.5903 -3.11193 8.6806
2 10.5205 2.98493 -8.74765
2 -2.53715 13.8902 0.00721012
2 2.62776 10.6601 8.73619
3 7.99252 7.63047 -8.70582
2 -13.4105 4.54789 0.0617841
3 -2.7254 10.7311 8.77506
1 -8.08459 7.60132 -8.72625
2 -10.5862 -9.23709 0.0520066
2 -10.5762 -3.09028 8.79011
3 -10.5177 3.07934 -8.74661
2 2.72359 -13.8192 -0.0837989
1 -7.91788 -7.66607 8.7805
3 -2.6574 -10.7546 -8.77833
2 13.302 -4.71605 0.0408702
1 8.01923 -7.53172 8.7413
3 2.67316 -10.7005 -8.67148
3 2.6425 4.60751 12.906
1 -2.71005 -4.57636 12.9653
2 -5.23765 0.0984941 13.0135
1 5.40203 -0.0297626 -12.9939
2 -5.31482 -0.023259 -13.1215
3 -2.69171 4.62325 -12.9898
2 9.25928 11.5624 0.0263317
2 9.26898 -3.90407 10.8899
3 9.31818 3.75951 -10.8586
2 -5.49652 14.0076 0.0116618
2 1.26688 10.0554 10.8087
2 8.02808 6.11215 -10.8919
2 -14.6562 2.38483 0.00371839
3 -1.34243 10.013 10.816
2 -7.99912 6.1719 -10.9039
3 -9.27617 -11.5193 0.0582493
2 -9.32471 -3.80639 10.9838
1 -9.38406 3.86044 -10.8967
1 5.30873 -13.8224 -0.0516745
2 -7.96179 -6.2316 10.9875
1 -1.29476 -9.99712 -10.8763
2 14.7461 -2.40924 0.0222311
3 7.93435 -6.10575 10.8918
2 1.34082 -9.98618 -10.8334
2 1.2771 6.97721 12.946
2 -5.38893 -4.64143 12.9949
2 -6.59089 -2.33709 13.0407
1 6.70042 2.45619 -13.0905
1 -6.52407 2.27073 -13.093
2 -5.37659 4.56088 -13.0969
1 13.3181 3.00863 -2.17688
2 3.90857 13.0675 2.1154
2 -9.2714 9.86662 -2.08106
2 -13.3986 -3.04724 2.20342
2 -3.97006 -13.0088 -2.08559
2 9.37921 -10.0094 2.13048
3 3.92951 -2.37217 13.0297
2 0.0713607 -4.60374 -13.0174
2 11.9133 3.73816 -4.17928
2 2.57319 12.3252 4.32872
2 -9.37235 8.39002 -4.33036
2 -11.953 -3.65729 4.38675
2 -2.66543 -12.2208 -4.39004
2 9.4414 -8.43913 4.28958
3 1.32377 -2.50207 12.9469
3 -1.237 -2.26022 -12.8925
1 10.5171 4.54939 -6.50823
2 1.29807 11.472 6.43388
2 -9.36559 6.81289 -6.45251
1 -10.554 -4.57676 6.50728
1 -1.24179 -11.3263 -6.49585
2 9.29299 -6.90071 6.44948
3 -1.19531 -2.25357 12.8549
2 -2.6166 0.0208239 -13.1281
1 9.28169 5.33927 -8.74429
3 -0.0323669 10.6412 8.61086
2 -9.31772 5.4184 -8.76984
2 -9.20603 -5.39507 8.77849
2 -0.011855 -10.6662 -8.58664
2 9.33526 -5.42541 8.70944
2 -3.84215 -2.30232 12.9627
1 -3.87666 2.26267 -13.0807
3 13.2628 1.60231 2.17523
1 5.27342 12.2466 -2.00059
1 -8.02409 10.6799 2.12234
1 -13.276 -1.53192 -2.13158
2 -5.30788 -12.3342 2.22617
1 7.94333 -10.7378 -2.13606
1 11.7988 0.789483 4.24251
3 5.33155 10.8351 -4.30359
1 -6.653 9.78385 4.30649
2 -11.9116 -0.703885 -4.34202
1 -5.24891 -10.7733 4.3878
2 6.61057 -9.92242 -4.26781
2 10.536 -0.0344729 6.40881
2 5.30921 9.20537 -6.4368
2 -5.35632 9.20201 6.54912
2 -10.5678 0.0906173 -6.48548
3 -5.18616 -9.26587 6.55159
1 5.20845 -9.28188 -6.4963
2 9.25613 -0.723974 8.5555
1 5.28379 7.63687 -8.60595
3 -3.94818 8.48458 8.69545
3 -9.30722 0.760275 -8.72245
2 -5.2493 -7.64728 8.62241
3 3.99527 -8.48912 -8.70374
2 7.98349 -1.5569 10.8019
2 5.35683 6.03231 -10.9717
2 -2.7052 7.78457 10.8001
2 -7.93704 1.48607 -10.8646
3 -5.2958 -6.13148 10.692
1 2.7539 -7.76289 -10.8727
2 11.8458 5.33824 -2.02342
2 1.23614 13.0157 2.0498
2 -10.749 7.69788 -2.17661
2 -11.8863 -5.36027 2.20275
2 -1.25382 -12.8976 -2.19707
1 10.6768 -7.61202 2.14934
2 2.58857 -0.082368 12.8972
3 1.32287 -2.24765 -12.938
1 10.5791 6.07428 -4.25854
2 -0.0816641 12.1873 4.25383
1 -10.6785 6.02858 -4.38366
1 -10.5533 -6.09046 4.31603
3 0.0490975 -12.1008 -4.23311
2 10.6992 -6.13351 4.3462
2 0.105444 -0.0183676 12.9663
1 0.0060642 0.0671963 -13.024
1 9.29199 6.88221 -6.46554
2 -1.39176 11.5184 6.59504
2 -10.6139 4.49029 -6.50299
1 -9.16394 -6.94912 6.51643
2 1.40346 -11.3977 -6.43235
2 10.6031 -4.66349 6.5652
2 -2.6128 -0.0368951 13.0112
2 -1.31373 2.34051 -13.1661
2 11.9555 3.79191 2.21065
3 2.54552 12.3085 -2.09028
2 -9.25989 8.37251 2.28231
3 -11.9305 -3.89097 -2.16995
3 -2.64765 -12.2754 2.17021
2 9.32473 -8.44185 -2.20462
2 10.5915 3.07277 4.28483
1 2.57492 10.6917 -4.33409
3 -7.93453 7.63657 4.41347
3 -10.579 -3.11757 -4.29239
2 -2.63497 -10.6515 4.34065
3 7.97305 -7.56158 -4.35533
3 9.24031 2.28784 6.5069
2 2.69755 9.15844 -6.51213
1 -6.65273 6.99561 6.5387
2 -9.27756 -2.27001 -6.46627
3 -2.57554 -9.16867 6.53099
1 6.54747 -6.89208 -6.5129
2 7.85476 1.52381 8.6503
3 2.56018 7.62614 -8.61874
1 -5.26237 6.25934 8.74405
1 -7.97366 -1.56124 -8.6511
1 -2.59014 -7.61576 8.6157
1 5.27918 -6.07593 -8.69938
2 6.50008 0.7712 10.8673
2 2.67653 6.20084 -10.8932
3 -3.92656 5.4206 10.817
3 -6.60276 -0.795513 -10.9172
2 -2.60843 -6.07269 10.8587
2 4.06377 -5.48174 -10.8029
1 10.6308 7.64981 -2.13944
2 -1.40908 13.0173 2.19066
2 -11.9157 5.36691 -2.23858
2 -10.5458 -7.72869 2.23607
2 1.42503 -12.9768 -2.23852
2 11.9454 -5.37125 2.15578
2 1.32198 2.22586 12.8819
2 2.62739 0.0380112 -12.9933
2 9.36235 8.49742 -4.30909
2 -2.75836 12.2891 4.31843
3 -11.9758 3.80262 -4.38273
3 -9.10943 -8.50704 4.35867
2 2.69827 -12.2052 -4.33046
2 11.9351 -3.704 4.23212
3 -1.30056 2.21008 12.9405
3 1.25935 2.34365 -12.9232
2 10.6397 6.09773 2.23469
3 0.0361286 12.2506 -2.11769
3 -10.5955 6.08566 2.1047
2 -10.6324 -6.16976 -2.20653
2 -0.0230034 -12.2003 2.13928
2 10.6345 -6.04808 -2.17554
1 9.23586 5.36657 4.29632
2 -0.00971717 10.6814 -4.30788
3 -9.29581 5.35501 4.29167
2 -9.29054 -5.43722 -4.31478
2 -0.0290883 -10.764 4.34977
3 9.18588 -5.40104 -4.31129
2 7.98809 4.63042 6.60987
2 -0.00330415 9.11245 -6.44471
1 -7.99972 4.73152 6.44569
2 -7.93947 -4.62282 -6.59629
2 0.00734805 -9.19079 6.4832
2 7.98226 -4.61215 -6.59054
2 6.60683 3.83387 8.6934
2 -0.0333151 7.62278 -8.64484
1 -6.61474 3.92508 8.61524
2 -6.61036 -3.93328 -8.71895
2 0.0500253 -7.70165 8.58405
3 6.66137 -3.7928 -8.70396
2 5.32795 3.07767 10.7111
2 0.0681379 6.18772 -10.8381
2 -5.30133 3.14523 10.795
2 -5.37143 -3.10388 -10.8724
3 0.0251149 -6.15437 10.7674
2 5.32535 -3.06879 -10.781
2 9.31837 9.88575 -2.04189
1 -3.94129 13.1461 2.05543
2 -13.2529 3.09417 -2.26194
2 -9.21114 -9.954 2.25945
3 4.02562 -13.0602 -2.19933
3 13.3278 -3.1962 2.10325
2 0.0341683 4.4622 12.9092
1 3.91991 2.32899 -13.0622
3 9.27743 8.36776 2.24456
3 -2.56306 12.2454 -2.11021
3 -11.9288 3.78613 2.12771
3 -9.23733 -8.39573 -2.17358
3 2.65046 -12.2688 2.10398
1 11.9762 -3.76402 -2.24487
3 7.93783 7.65258 4.31192
1 -2.70456 10.5905 -4.35978
2 -10.5009 3.09217 4.1939
3 -7.91931 -7.62359 -4.30502
2 2.69662 -10.7142 4.2525
1 10.6194 -3.03524 -4.29769
2 6.61862 6.95581 6.53925
2 -2.66732 9.14856 -6.57601
1 -9.1787 2.29262 6.42407
3 -6.56241 -6.96288 -6.523
3 2.65032 -9.24513 6.37321
1 9.13953 -2.27836 -6.5963
2 5.3485 6.18734 8.61473
3 -2.61515 7.64202 -8.67406
1 -7.83173 1.60176 8.71072
3 -5.30261 -6.15634 -8.75192
2 2.70247 -7.63433 8.49037
3 7.91339 -1.43544 -8.78737
3 3.95739 5.33914 10.7399
2 -2.68002 6.1453 -10.9097
2 -6.62824 0.810181 10.8844
1 -3.97017 -5.38004 -10.8138
2 2.60621 -6.12881 10.762
2 6.61144 -0.674499 -10.8785
2 7.97241 10.6521 2.16688
1 -5.35939 12.1963 -2.17151
3 -13.3147 1.53046 2.1481
3 -7.9058 -10.7946 -2.18361
2 5.25163 -12.2446 2.18453
2 13.362 -1.46211 -2.27829
3 6.62936 10.0148 4.28083
3 -5.41264 10.6102 -4.34404
1 -11.9063 0.712634 4.31206
2 -6.62227 -10.0168 -4.36216
3 5.37522 -10.6988 4.29499
1 11.9734 -0.742218 -4.34341
1 5.30983 9.15902 6.46214
2 -5.28594 9.19932 -6.49564
2 -10.6755 -0.0108642 6.54582
2 -5.29022 -9.19469 -6.56302
2 5.20194 -9.15642 6.42037
1 10.5961 0.0560718 -6.44404
2 3.9391 8.387 8.60227
2 -5.28639 7.62754 -8.69686
2 -9.28591 -0.724176 8.68429
1 -3.92544 -8.51155 -8.71702
3 5.22722 -7.57505 8.63744
2 9.22947 0.777453 -8.68902
2 2.64401 7.60808 10.7956
2 -5.22757 6.03095 -10.8374
2 -8.00398 -1.54008 10.9025
3 -2.68741 -7.75955 -10.9217
2 5.32211 -6.19394 10.794
2 8.04544 1.57386 -10.805
3 18.7244 -0.0123622 -0.0611673
3 9.33736 16.1803 -0.0417837
3 -9.34115 16.2993 0.0367906
3 -18.6741 0.0494225 0.0561912
1 -9.28551 -16.0974 0.0143415
2 9.16579 -16.3224 0.153679
1 9.39761 -5.52695 15.3429
2 0.280148 11.0031 15.3054
2 -9.38689 -5.58982 15.3897
3 -0.173422 -10.7412 -15.2689
3 9.16673 5.48124 -15.1429
3 -9.35608 5.55251 -15.3685
3 17.3547 2.20824 0.0210308
1 17.3324 -0.842632 2.12072
2 17.3492 0.729228 -2.15673
2 6.73996 16.1 -0.13098
2 8.01516 15.4786 2.15705
1 9.30627 14.6746 -2.2647
3 -10.7971 14.007 0.00467839
2 -8.08217 15.466 2.12167
3 -9.41045 14.5914 -2.30936
1 -17.332 -2.20718 0.027517
3 -17.2621 -0.7187 2.14935
2 -17.4124 0.905598 -2.18079
2 -6.59281 -16.2478 0.0389254
3 -9.31207 -14.6919 2.21721
2 -7.9516 -15.2656 -2.18325
1 10.6475 -13.8409 0.0144125
2 9.35174 -14.6082 2.29902
2 7.86621 -15.3266 -2.06009
2 7.99236 -3.20425 15.3455
1 6.62097 -5.42456 15.2127
1 -1.24323 8.38791 15.1633
3 1.35646 -8.48971 -15.2293
3 -1.31276 -8.37765 -15.2293
2 6.64994 5.25828 -15.3587
2 15.962 4.50659 0.104854
1 15.9844 -1.58688 4.38345
2 15.9003 1.41166 -4.32812
1 4.02535 16.0855 0.0217327
3 6.54017 14.5681 4.25229
1 9.21545 13.135 -4.39889
2 -11.9413 11.6485 0.0293255
2 -6.75178 14.6816 4.20875
3 -9.33564 13.0438 -4.30448
2 -15.9898 -4.60041 0.0168087
2 -16.2119 -1.52458 4.49146
3 -16.0306 1.62979 -4.27325
2 -3.97896 -16.2473 -0.112604
2 -9.38131 -13.0411 4.41603
2 -6.53548 -14.5941 -4.25744
3 12.0309 -11.5343 0.0210055
1 9.37533 -13.0211 4.34222
1 6.58368 -14.6929 -4.24698
1 6.5977 -0.929099 15.3238
2 3.98696 -5.29358 15.2632
1 -2.70617 6.08625 15.2233
2 2.61009 -6.23083 -15.2984
2 -2.6212 -6.20447 -15.3549
1 3.8554 5.25551 -15.16
3 14.5645 6.83347 0.119714
1 14.5827 -2.45205 6.54781
3 14.578 2.31724 -6.43547
1 1.36162 16.1865 -0.0709395
2 5.23142 13.923 6.43546
3 9.36139 11.564 -6.56271
2 -13.357 9.25641 -0.0771706
1 -5.33739 13.7851 6.44465
1 -9.37138 11.4598 -6.49565
3 -14.5615 -6.83299 0.107767
2 -14.705 -2.34666 6.6383
2 -14.4993 2.28959 -6.41076
2 -1.28894 -16.0582 0.00059956
1 -9.23889 -11.6349 6.57596
2 -5.25598 -13.8996 -6.47171
2 13.2019 -9.20302 0.086026
3 9.31005 -11.5781 6.45622
2 5.26301 -13.8135 -6.32457
1 5.23199 1.47687 15.2467
3 1.39815 -5.29932 15.1517
1 -3.92907 3.83882 15.3057
1 4.13136 -3.90195 -15.287
2 -4.03674 -3.84569 -15.247
3 1.29655 5.32086 -15.2292
2 13.3391 9.24242 0.0283866
1 13.3544 -3.17004 8.75401
2 13.3509 3.0701 -8.51966
2 -1.32835 16.3703 0.0764532
3 3.89797 13.0533 8.71347
2 9.35612 9.95902 -8.74115
1 -14.5417 6.88417 0.0575115
3 -4.00362 13.1058 8.71607
2 -9.40513 9.9341 -8.66025
3 -13.2052 -9.22068 -0.0373164
1 -13.2068 -3.06275 8.75835
1 -13.2517 3.20611 -8.62007
3 1.29125 -16.0762 -0.0094346
2 -9.24997 -9.93683 8.77254
2 -3.97366 -13.0498 -8.58612
3 14.5271 -6.92898 0.00550905
1 9.29603 -9.86817 8.61518
2 3.9895 -13.0578 -8.67573
3 3.96292 3.7293 15.2868
1 -1.31224 -5.31091 15.0697
2 -5.19054 1.48279 15.1659
1 5.28325 -1.50814 -15.246
2 -5.31463 -1.39812 -15.1948
3 -1.27253 5.33323 -15.0927
1 12.0284 11.4974 -0.00681832
2 12.0011 -3.94877 10.8598
2 11.9349 3.93927 -10.9332
3 -3.9582 16.1259 -0.0430132
3 2.68955 12.2536 10.8825
3 9.28381 8.41559 -10.8473
1 -15.9307 4.60437 0.0720659
3 -2.65239 12.2308 10.8745
2 -9.41861 8.3365 -10.9781
3 -11.8918 -11.5637 0.0983695
3 -11.888 -3.88958 10.9128
2 -11.961 3.83711 -10.9156
3 4.01671 -16.1325 0.0700862
3 -9.38638 -8.4253 10.9551
2 -2.62141 -12.2268 -10.9467
3 15.9437 -4.69357 -0.0030335
3 9.20037 -8.34343 10.8821
2 2.61123 -12.3382 -10.8202
2 2.5724 6.06511 15.1748
2 -4.0659 -5.25585 15.2288
2 -6.51464 -0.762551 15.1707
3 6.54979 0.824051 -15.1004
3 -6.6552 0.809125 -15.2891
3 -3.92862 5.25862 -15.1794
1 10.7125 13.9046 -0.092191
3 10.959 -4.82523 13.2113
3 10.593 4.68351 -13.0474
1 -6.60045 16.4358 0.088302
3 1.34284 11.5704 13.0699
3 9.31368 6.95361 -13.1501
3 -17.3479 2.37183 0.0624291
2 -1.35971 11.5652 12.9607
1 -9.31609 7.07029 -13.2628
3 -10.5961 -13.8893 0.048576
3 -10.5903 -4.64966 13.1709
1 -10.7087 4.72659 -13.2079
3 6.66681 -16.2152 -0.0430605
2 -9.34701 -6.96582 13.2082
3 -1.27703 -11.6104 -13.0842
1 17.4618 -2.39547 -0.0656165
2 9.46295 -7.12948 13.1929
2 1.2986 -11.4859 -13.141
2 1.14228 8.39277 15.3541
1 -6.77885 -5.32444 15.2149
1 -7.9481 -2.93604 15.6986
2 7.84642 3.00771 -15.352
3 -7.98259 3.15362 -15.2604
3 -6.71145 5.371 -15.315