2678
 Atoms. Timestep: 6000
3 2.07614 0.077802 -0.258849
2 0.732997 3.01492 -1.48272
2 -0.60752 1.02578 -0.226121
3 -2.80424 -0.218993 -0.019478
2 -1.22589 -2.37477 -0.322199
2 1.36862 -2.29589 0.0975839
1 1.5019 -0.84094 2.12196
3 0.299607 1.37372 2.03851
2 -1.28893 -0.918053 1.90486
2 0.109899 -0.926411 -1.91681
2 5.21193 2.56537 0.595217
1 -2.12983 3.90997 0.341096
3 -5.53705 -0.192252 0.100654
1 -2.77393 -4.73459 -0.0887552
2 3.00914 -4.44398 0.0372222
1 3.21945 -1.14481 4.09157
3 0.000993361 2.98111 4.80599
2 -2.72885 -1.61993 4.42627
1 -0.0701633 -3.0652 -4.21521
1 2.82828 1.63579 -3.77769
2 -2.65783 1.46602 -4.35561
2 3.8403 0.442262 1.54144
2 4.11389 0.77966 -1.64795
1 0.599405 4.71148 0.417999
2 1.31233 3.64839 2.77001
2 3.10468 3.27355 -1.79138
1 -3.94585 2.10241 -0.22306
1 -1.90126 2.27709 -2.01933
2 -4.04631 -2.61081 -0.112807
2 -4.06638 -0.803115 2.01241
3 -4.0052 0.615335 -2.36384
2 0.0215847 -4.64809 0.0584176
2 -2.79195 -3.10738 2.20722
3 3.89729 -1.88555 0.351672
3 2.73607 -3.12365 2.26066
2 1.33337 -3.80469 -2.0685
1 1.56462 1.00098 4.21542
2 -0.0536378 -1.48668 4.20719
1 -1.15433 0.726075 4.18447
1 1.35433 -0.583784 -4.24684
2 -1.20346 -0.957107 -4.38085
1 0.0355248 1.51359 -3.59739
2 2.40298 2.48016 0.672683
1 -2.23075 1.66581 1.69367
1 -2.6101 -1.62907 -2.36347
3 -0.0371739 -3.17301 2.24133
3 2.59196 -1.3997 -2.00517
2 9.42589 1.09933 -1.41755
2 -3.92275 6.23786 0.472945
1 -8.15593 -0.234194 -0.0619133
1 -4.11067 -6.94283 -0.143348
2 4.1223 -6.70363 0.191166
2 3.94249 -2.03084 6.44129
1 0.168589 4.48819 6.90456
2 -3.94977 -2.5344 6.54448
3 -0.135054 -4.72629 -6.22781
2 4.54057 2.56038 -6.21271
2 -4.3544 2.23969 -6.7694
1 6.75377 0.956773 -1.51129
3 2.6373 6.81828 0.660359
3 4.08971 5.7017 -1.86861
1 -2.45896 5.58401 2.57474
2 -3.75652 4.76265 -2.05704
2 -6.68357 -2.50708 -0.0333497
1 -6.71752 -0.808657 2.21807
2 -6.65922 0.655104 -2.08226
1 -1.37754 -7.01319 0.133355
2 -4.10547 -5.524 2.17239
2 -2.72073 -6.54025 -2.12242
1 5.38839 -4.12778 0.0216337
2 3.88787 -5.45195 2.48016
3 2.61303 -6.05116 -1.86357
1 2.80263 0.325075 6.58132
2 1.24411 -2.34216 6.60534
2 -1.46308 1.99776 6.61071
1 -1.48811 -2.44146 -6.26974
2 1.3862 2.51172 -5.95877
1 5.59569 6.6088 0.247495
1 8.7268 -0.072055 1.40033
3 5.31465 1.65853 -3.9031
2 -1.34317 6.45701 0.4021
1 1.58994 5.09885 4.70921
1 -6.57843 2.36325 -0.158426
2 -0.954551 5.25495 4.63178
2 -4.18166 3.74278 -4.59084
3 -5.2184 -1.65366 4.33436
3 -5.18373 1.40584 -4.57269
2 1.25089 -6.99636 0.121898
3 -4.05625 -3.92272 4.41521
1 6.58778 -1.23833 0.434683
1 3.87277 -3.78137 4.41361
1 1.33038 -5.34231 -4.07184
2 1.58131 2.49987 6.68989
1 -1.4027 -2.22011 6.48088
2 -3.36587 0.0573147 6.58386
2 2.88061 0.324954 -6.14135
2 -2.63585 0.100054 -6.51928
2 -1.14295 2.36718 -6.55799
2 5.68953 3.32456 -1.86226
2 0.517675 6.14117 2.34729
1 -5.38172 2.93429 -2.46967
3 -5.35989 -3.16443 2.14572
2 0.0195161 -6.1415 -1.96627
2 5.17638 -1.98936 2.58741
1 0.179307 0.149638 6.40917
2 0.0849576 -0.0223285 -6.4307
1 6.20161 0.774245 2.25057
1 1.55468 5.64344 -1.84989
2 -3.95924 3.77471 2.00454
2 -5.20244 -1.55325 -2.19869
2 -1.46966 -5.55014 2.38979
1 4.35881 1.29682 4.52268
1 1.36535 3.99839 -3.89835
2 -2.47204 2.99679 4.29478
2 -3.9294 -1.09263 -4.61012
2 -1.44236 -3.9357 4.42072
1 2.57087 -2.85604 -4.16376
2 4.08292 3.08177 2.76188
3 -1.10352 4.86989 -1.82098
2 -5.37037 1.59279 1.83964
3 -4.1075 -4.04481 -2.46534
2 1.26322 -5.54119 2.31239
1 5.3155 -1.53004 -1.90183
3 -1.18856 3.75273 -4.27166
1 -4.01669 0.731875 3.94203
2 -1.89688 -5.2961 -4.13205
2 1.31947 -3.66356 4.33837
3 4.132 -0.644841 -4.1077
2 10.1363 2.0923 1.36226
1 4.87616 9.17381 0.227158
3 -5.53961 9.06326 0.268287
2 -10.8078 -0.0751181 0.131589
2 -5.43324 -9.17585 -0.133894
1 5.23781 -9.26507 0.251976
2 5.21397 -2.93079 8.81313
2 0.0623488 5.93871 9.13168
2 -5.63972 -3.15947 8.71258
3 0.185545 -6.15962 -8.45864
1 5.58827 3.23649 -8.44446
2 8.25148 3.57404 -1.91839
1 1.27792 8.81407 0.378789
2 5.36562 7.94317 -1.95527
2 -6.48548 6.8148 0.250155
1 -3.96955 8.15685 2.37551
1 -5.25087 7.81391 -2.00395
3 -9.57489 -2.39839 -0.13083
2 -9.34607 -0.876832 2.28644
3 -9.49068 0.584222 -2.12034
3 -2.68826 -9.40745 0.421398
1 -5.16169 -7.77935 2.1764
2 6.72037 -6.5766 0.0650551
2 5.13971 -7.78142 2.43171
1 4.00145 -8.36249 -2.04468
2 3.90222 -0.7393 9.03391
2 -1.32164 3.7328 8.83823
2 1.23987 -3.70659 -8.33222
2 -1.39767 -3.78123 -8.44311
2 2.87185 3.19445 -8.36553
3 6.92314 5.72218 -1.96911
1 6.71969 -0.988313 4.20456
3 8.02201 1.70689 -3.8662
3 2.92462 7.27905 4.52864
2 5.61851 6.18113 -3.85812
3 -8.0494 4.42565 -0.0358763
1 -2.85152 7.27434 4.64191
1 -5.13444 6.10285 -4.18424
1 -7.92011 -4.61886 -0.163753
1 -7.99158 -1.10973 4.53558
2 -8.03919 1.48076 -4.32765
1 -0.125411 -9.41427 0.169323
1 -5.38927 -6.2967 4.40731
3 -2.91013 -7.61436 -4.53088
3 7.92645 -4.34948 0.0570793
2 5.40237 -6.1589 4.5215
1 2.83856 -7.60244 -4.13714
3 2.78137 1.43412 9.03641
1 0.00830748 -3.23272 8.82411
2 -2.58009 1.48478 8.78549
2 2.66359 -1.3641 -8.32628
2 4.07491 8.13198 2.31868
3 6.53577 -2.17141 6.69937
1 7.06311 2.4904 -6.31436
2 -2.62391 8.93654 0.177606
3 1.60584 6.79186 6.78254
1 5.55927 4.89135 -6.52833
2 -9.19446 2.15601 -0.0522528
1 -1.23485 6.72832 6.8274
1 -6.79041 -7.02398 -0.252592
2 -6.57649 -2.18651 6.36625
2 2.73306 -9.1653 0.201616
3 -5.42703 -4.74991 6.6187
1 -1.40539 -7.0379 -6.38393
2 9.52943 -2.25015 0.3514
1 5.26342 -4.53322 6.66325
3 1.3118 -6.84989 -6.2158
2 -2.7233 -3.31394 8.74778
3 -3.99636 -1.05948 8.88635
3 3.98546 0.92226 -8.44177
2 -3.78533 0.594829 -8.5996
3 -2.59116 2.94319 -8.48121
3 6.88481 4.01014 -4.05551
1 1.48487 8.5132 2.9594
2 -6.4894 5.22044 -2.13478
2 -8.09486 -3.33694 2.12216
1 6.66656 -5.20881 2.18863
1 1.41941 -0.83172 8.76943
1 -1.24051 0.515521 -8.4817
2 4.27236 3.94793 -4.01619
3 -0.257496 7.54093 4.49471
2 -6.64533 -3.98867 4.37258
2 -0.127485 -7.52235 -4.22777
2 6.47185 -3.68076 4.3442
1 -1.38646 -0.761944 8.73863
3 7.84674 2.14735 0.467839
2 2.67995 8.04437 -1.73254
3 -5.33881 5.89288 2.63892
2 -8.0441 -1.63147 -2.16696
3 5.42105 -6.08009 -1.97087
1 2.82606 6.39471 -3.94741
1 -4.34301 4.55803 4.45587
2 -6.54696 -0.852837 -4.22684
3 -2.687 -6.3308 4.51105
2 5.3158 0.18101 6.73097
3 2.99096 4.66331 -6.06716
1 -2.70645 4.57166 6.65712
1 -5.39946 -0.0723109 -6.65315
2 -2.77525 -4.90629 6.49264
1 2.61597 -4.37205 -6.29403
1 -1.13648 8.20921 2.15406
3 -8.07368 3.03132 -2.17553
2 -6.67782 -5.62982 2.06924
1 1.06922 -8.38471 -2.10179
1 7.83795 -2.54047 2.26814
3 -0.0262837 1.48229 8.85917
2 1.39348 0.814157 -8.35181
3 -0.0618432 7.72085 -1.64489
3 -6.64004 3.8394 2.08875
3 -6.739 -3.81531 -2.30801
3 -0.0930159 -7.82919 2.35181
3 6.86064 -3.57153 -2.18534
2 4.83264 4.34504 5.14612
3 0.0582044 6.25776 -4.13275
1 -5.36383 -3.17489 -4.59747
2 0.119826 -6.36262 4.50924
2 5.4948 -2.81454 -4.0017
3 4.28763 2.39883 6.90079
1 0.221078 4.47666 -6.38311
1 -4.44967 2.51486 6.07592
1 -3.96926 -2.29999 -6.83227
2 0.0332731 -4.92763 6.7536
2 3.99919 -2.05706 -6.19777
2 -2.69976 7.24174 -1.87124
2 -7.90556 1.47973 2.3
3 -5.25279 -6.28664 -2.44346
1 2.46561 -7.92167 2.55423
1 7.88705 -1.49142 -1.68655
2 3.17363 5.46553 2.87398
2 -2.50074 5.87061 -4.10654
1 2.90807 -6.56758 4.58266
3 2.80307 4.53843 6.9144
2 -2.65565 4.5399 -6.38133
1 -6.06469 0.185648 6.05393
3 -2.79408 -4.68665 -6.51649
1 2.59634 -4.81446 6.66399
1 5.61235 0.205426 -6.03896
2 13.4429 -1.47209 -0.371152
3 6.69951 11.7832 0.283265
2 -6.54326 11.5548 0.172778
2 -13.4448 -0.0461549 -0.0113817
2 -6.85836 -11.4913 -0.0983904
3 6.72732 -11.567 0.208547
2 6.61614 -3.71415 10.7891
1 0.0742192 7.68817 11.086
2 -6.84506 -4.08791 10.9456
1 0.140025 -7.51169 -10.7399
2 6.74106 3.89873 -10.7068
2 -6.20388 3.73254 -10.6769
2 11.1981 -0.14504 0.555242
2 11.9836 0.3332 -1.79277
2 3.94522 11.8922 0.0575058
2 5.26499 11.0372 2.30604
1 6.46519 10.0994 -1.91473
1 -8.08788 8.98063 0.574401
3 -6.65228 9.97512 -2.05378
2 -12.1496 -2.34138 -0.236132
2 -12.0249 -0.732446 2.27316
1 -12.1441 0.664844 -2.08853
2 -4.20169 -11.5273 -0.126281
1 -6.76534 -10.0958 2.01466
2 -5.37587 -10.6423 -2.14808
1 7.96788 -9.09795 0.157922
2 6.64259 -9.99495 2.30874
2 5.19883 -1.70513 11.3067
2 4.0943 -3.8842 11.1165
1 -1.34347 5.29164 11.0928
1 1.17829 -4.76086 -10.7571
2 -1.30834 -5.33451 -10.8069
2 3.99155 4.1201 -10.612
1 9.66732 4.11192 0.0241539
3 10.8706 1.33767 -3.78791
1 2.55123 12.5134 -1.98872
1 4.17148 9.76551 4.30201
1 6.99262 8.92478 -4.40932
2 -9.35533 6.65305 0.149339
1 -3.96405 9.78782 4.38151
2 -6.36686 8.32797 -4.24198
1 -11.1205 -4.66648 -0.14327
3 -10.6227 -1.56203 4.47811
3 -10.7342 1.53116 -4.34173
3 -1.53475 -11.6405 -0.208305
2 -6.77201 -8.75151 4.24006
2 -4.14597 -10.0062 -4.40212
1 9.48175 -6.6378 0.115006
1 6.77861 -8.38191 4.51699
2 4.07345 -9.72147 -4.2182
3 1.1877 0.567221 11.0273
3 1.30127 -3.87617 11.1484
2 2.75908 -2.83631 -10.5206
2 -2.55793 -3.01988 -10.7811
2 1.35982 3.98983 -10.6901
1 8.58394 6.58393 0.248449
2 8.9758 -2.1752 6.23048
2 9.85332 2.28121 -6.04539
2 -1.0425 11.1676 -0.205675
3 2.98126 8.93817 6.63769
2 6.97532 7.12805 -6.43083
1 -10.6412 4.38221 0.334892
1 -2.50657 9.01148 6.68496
2 -6.73041 6.75527 -6.39149
1 -9.52106 -6.88995 -0.169609
1 -9.35145 -2.44329 6.42428
1 -9.32162 2.14684 -6.49573
3 1.21729 -11.6389 0.0033079
1 -6.78812 -7.16653 6.48259
2 -2.66685 -9.31533 -6.58126
1 10.9328 -4.37361 -0.0810062
2 6.6666 -6.91104 6.63267
2 2.67048 -9.08959 -6.29558
1 -1.4236 -4.05494 10.9045
2 -4.13177 0.750263 10.9591
2 -1.33398 3.83855 -10.5956
1 7.60283 9.12366 0.256162
2 8.00555 -2.89335 8.76358
3 8.19478 3.01177 -8.67132
2 -3.81148 11.209 -0.0420309
1 1.32258 8.37697 8.67218
2 7.00707 5.35097 -8.43488
2 -11.9648 2.18305 0.0482543
2 -1.33599 8.39739 8.85113
3 -6.74318 5.43619 -8.7147
3 -8.32759 -9.36962 -0.354551
1 -8.31057 -3.21445 8.78387
2 -7.86792 3.02084 -8.55651
3 3.88881 -11.5021 0.0856706
2 -6.84535 -5.66551 8.68786
3 -1.39107 -8.4632 -8.62888
2 6.42718 -5.42193 8.79038
1 1.36801 -8.39795 -8.31836
2 1.38379 5.28327 11.2423
2 -4.26959 -4.01529 10.9508
2 -5.50577 -1.47809 10.9891
1 5.49719 1.69144 -10.6678
2 -5.14754 1.24728 -10.7902
3 2.8968 10.435 1.79047
1 -7.89297 7.60885 -1.89201
2 -10.7865 -3.04296 2.18204
1 -2.86121 -10.3547 -1.99785
2 8.02368 -7.71024 2.24933
1 9.64281 3.96874 -4.10131
1 -7.69033 5.84451 -4.3652
2 -9.49591 -4.01302 4.39155
2 -1.46723 -9.6416 -3.95847
2 8.09567 -6.04503 4.26408
3 -0.146247 -1.64005 10.8289
1 -4.19989 -1.01182 -11.2018
2 0.181154 8.9977 6.43304
2 -5.63053 4.47144 -6.64068
1 -7.97448 -4.68517 6.50597
3 0.039956 -9.18636 -6.09354
3 7.86449 -4.42311 6.69589
2 -2.70039 -1.65515 11.0486
2 -2.56909 1.55058 -10.8203
3 10.6919 5.01104 1.90485
3 3.9523 10.2926 -1.90569
2 -6.52343 8.33284 2.5141
2 -10.734 -1.71057 -2.46108
2 -4.04887 -10.1088 2.26495
1 6.57838 -8.365 -2.09643
2 8.56137 0.924828 4.09328
1 4.23824 8.52477 -4.06808
3 -5.41469 7.5531 4.6856
2 -9.35821 -0.911725 -4.35616
1 -4.04633 -8.60651 4.49502
1 5.37364 -7.52928 -4.36873
3 7.79403 0.27492 6.46728
2 4.16522 7.13926 -6.25214
2 -7.97811 -0.0473843 -6.54782
1 -4.03468 -7.14909 6.64662
1 6.71937 -0.796763 8.91197
1 -2.66922 6.04849 8.93031
1 -6.6463 0.875082 -8.67887
2 -4.20358 -5.62437 8.76482
2 2.90819 -6.00793 -8.06209
3 9.69224 5.63018 -2.15439
2 -0.00713031 10.5283 2.09541
2 -9.19352 5.38418 -2.17977
2 -9.6555 -5.42305 2.23578
2 -0.138949 -10.8123 -2.05071
1 9.51315 -4.81749 2.08363
2 1.18696 -0.708308 -10.5672
2 8.35552 6.12689 -4.18425
2 -1.28973 10.0058 4.35132
3 -9.42712 3.72254 -4.29357
3 -7.93226 -6.33705 4.16337
3 1.27487 -10.0235 -4.14301
2 9.06678 -3.77547 4.31613
2 -1.39603 0.713588 10.9165
2 0.0194397 1.69521 -10.4239
2 6.9503 4.52381 0.455587
2 0.879372 10.0648 -1.70735
2 -8.00096 6.01506 2.2887
2 -9.46452 -3.92622 -2.31329
3 -1.32319 -10.0504 2.34473
2 8.04133 -5.93209 -2.01923
2 7.10308 3.15834 2.96324
1 1.18659 8.77203 -3.73502
3 -6.71944 5.39158 4.44772
2 -7.83346 -3.11767 -4.45031
3 -1.31726 -8.67999 4.55408
2 6.69541 -5.32256 -4.1163
2 6.49445 2.30828 5.7165
2 1.44971 6.81287 -6.17093
2 -5.49101 4.79819 6.74443
2 -6.64601 -2.25796 -6.68488
1 -1.32159 -7.17391 6.70435
2 5.41547 -4.38101 -6.13442
3 -4.06077 3.68322 8.57183
3 -5.48706 -1.50301 -9.01352
2 -1.59619 -5.5802 8.893
1 4.2032 -3.75935 -8.33517
2 8.12931 7.91863 -2.13646
3 -2.58027 10.5434 2.14275
1 -10.7206 3.02614 -2.12044
3 -8.27169 -7.65229 2.01799
2 2.61612 -10.5992 -2.04071
2 11.9413 -2.53066 1.61951
3 1.31845 3.74101 9.12308
2 2.74993 1.67535 -10.562
2 6.48166 8.65838 2.68172
2 -1.70784 9.67902 -2.27025
3 -9.01506 3.67706 2.14334
3 -8.02791 -6.03095 -2.39292
2 1.33624 -10.1223 2.35274
2 9.36476 -3.51363 -2.0027
2 5.60395 5.42985 2.48056
2 -7.72185 3.08756 4.37354
2 -6.67609 -5.44336 -4.49574
1 8.10965 -2.6255 -4.25325
1 6.48423 3.85881 8.17423
2 -1.24093 6.72066 -6.33541
2 -6.98838 2.49183 6.68842
1 -5.51401 -4.78456 -6.67589
1 1.43733 -7.34514 6.52482
2 6.83 -2.01864 -6.39858
2 3.97849 3.69947 9.11296
2 -1.6115 5.36991 -8.51578
2 -5.23382 1.3127 8.27411
2 -4.08548 -3.84205 -8.74813
1 1.41023 -5.52744 9.03453
2 5.17564 -1.41737 -8.4692
1 -11.3804 2.82293 2.56717
1 -6.84336 -8.49218 -2.49643
3 3.83506 -10.1272 2.35355
1 10.1371 -1.10624 -2.6909
2 5.30795 7.2081 4.49441
3 -3.58677 8.3098 -4.18257
2 -9.38993 0.996569 4.35875
2 -5.50841 -7.74139 -4.51914
2 4.14526 6.70221 6.73731
2 -3.8728 7.04372 -6.37553
2 -4.22605 -7.11043 -6.61531
3 4.03525 -7.09641 6.79292
3 8.32638 0.142239 -6.30491
2 2.69004 6.02549 9.07754
1 -4.07356 5.04293 -8.65704
2 -6.67636 -0.796178 8.5997
1 -2.66374 -6.17228 -8.67155
3 3.97504 -5.31335 8.83361
1 6.77928 0.750084 -8.39034
2 7.93255 14.3056 0.0194595
2 -7.85399 13.8861 0.154108
2 -16.0788 -0.161352 -0.140106
2 -8.28928 -13.9737 -0.0468215
3 7.91784 -13.7975 -0.075472
1 7.15628 -4.16453 13.3111
2 -0.0271656 9.319 13.0748
2 -8.24502 -4.70281 13.0444
1 0.273503 -9.05997 -12.9828
3 7.88731 4.79422 -12.8398
1 13.3264 1.48996 0.0388051
1 13.1484 -0.400702 2.22644
2 14.7341 0.132357 -2.05355
2 6.66019 13.4391 2.18035
2 7.78283 12.5256 -2.10836
1 -9.25675 11.4577 0.0208306
1 -6.474 13.157 2.04173
2 -8.01592 12.4963 -1.91849
3 -14.7467 -2.36208 -0.182311
2 -14.6925 -0.778599 2.16129
2 -14.8737 1.02398 -2.31022
1 -5.55008 -14.2778 -0.503957
1 -8.09557 -12.396 1.97196
3 -6.75117 -13.2264 -2.17194
3 9.35316 -11.5779 0.131943
2 8.00407 -12.403 2.18664
3 6.53713 -12.8896 -2.05067
2 7.61081 -1.95506 12.4518
2 -1.57465 7.11157 13.2223
3 1.50556 -6.7342 -12.8634
3 -1.13951 -6.82827 -12.9187
2 5.22558 4.89327 -13.0317
2 12.206 3.9567 0.138297
1 12.2202 -1.19624 4.54869
2 13.3506 1.35875 -4.12325
3 2.54669 14.1004 0.0573501
2 5.18266 12.6879 4.68937
1 8.72083 10.836 -3.46133
2 -10.5698 9.14816 0.128299
1 -5.38387 12.0845 4.1549
1 -13.3988 -1.33464 4.3326
3 -13.3957 1.68037 -4.33558
2 -2.67231 -13.9188 -0.0792547
2 -5.38407 -12.3945 -4.54334
3 10.7415 -9.21416 -0.0216707
2 8.06022 -10.9013 4.45865
3 5.31782 -12.1284 -4.37816
3 3.83701 0.587788 11.306
3 2.1518 -4.66657 13.4175
1 -2.86993 4.47995 13.3159
2 2.65813 -4.33453 -12.5834
2 -2.5687 -4.57985 -13.1486
3 2.51401 4.79528 -12.773
2 12.5707 6.58098 -0.0184554
3 11.517 -2.22112 6.78118
2 12.6369 2.26411 -6.54926
2 0.0708041 13.7729 -0.0635352
1 4.41286 11.1052 6.65397
2 8.41421 9.60965 -6.64315
2 -12.0942 6.82409 0.121436
1 -3.93458 11.3664 6.62245
2 -7.95633 9.2733 -6.47963
2 -12.478 -7.03955 -0.18341
2 -12.0195 -2.11288 6.68273
1 -11.9763 2.25913 -6.54127
2 -0.00595605 -13.9199 -0.0983776
2 -8.1157 -9.36834 6.44905
1 -3.85381 -11.5039 -6.40699
3 12.1991 -6.78714 0.0146047
2 8.0373 -9.47967 6.69817
3 3.94737 -11.5134 -6.47778
1 2.70436 2.86817 11.3261
3 -0.140053 -4.7164 13.0819
2 -4.30055 2.31288 13.0039
1 4.07703 -2.10734 -12.9448
2 0.0225395 4.84527 -12.9879
1 10.0918 8.99301 -0.327502
2 10.9905 3.03713 -8.46962
2 -2.84397 13.7104 -0.0471409
2 2.90889 10.4066 8.76242
3 8.38984 7.9115 -8.66599
2 -13.3158 4.51445 -0.0170942
3 -2.56164 10.7663 8.52903
1 -7.9264 7.74951 -8.50842
2 -10.9278 -9.24523 -0.263669
2 -10.7987 -2.60864 8.85868
3 -10.7041 2.88712 -8.72316
2 2.6996 -13.8414 0.0427102
1 -8.16538 -7.9341 8.7478
3 -2.6386 -10.7122 -8.76855
1 8.01716 -7.70452 8.95964
3 2.55547 -10.6552 -8.61862
1 -2.972 -4.59627 13.2024
2 -5.71389 0.0572796 13.2829
1 5.48821 0.0882513 -12.7824
2 -5.52183 -1.49364 -15.1631
3 -2.74877 4.84817 -13.3053
2 9.27037 11.7512 -0.0199058
2 9.33305 -3.84154 11.279
3 9.41196 3.82577 -10.6532
2 1.49534 9.93737 10.8159
2 8.23595 6.16198 -10.6564
2 -14.6566 2.28789 0.0697353
2 -7.99472 6.09429 -11.0327
3 -9.5175 -11.5032 -0.0879826
2 -9.77316 -3.79164 11.1209
1 -9.26132 2.09368 -13.1553
1 5.29412 -13.81 0.129289
2 -8.27596 -6.19222 10.8586
1 -1.12286 -9.92931 -10.7399
2 14.2877 -3.44762 0.955155
3 7.95641 -5.97471 11.0265
2 1.34623 -9.83704 -10.7001
2 1.36263 6.99096 13.4706
2 -5.5342 -4.61966 13.1537
2 -6.84939 -2.32487 13.1487
1 6.62743 2.50754 -12.9458
1 -6.62836 2.19518 -13.0871
2 -5.39942 4.7336 -13.0009
1 12.3138 2.73001 -2.20201
2 -9.14081 9.94685 -1.99604
2 -13.4792 -3.14706 1.97843
2 -4.01036 -13.0675 -2.36118
2 9.57663 -9.87595 2.25959
2 -0.0379782 -4.54024 -13.0717
2 12.1827 3.76856 -4.46196
2 2.70113 11.9368 4.01366
2 -9.14202 8.62541 -4.36349
2 -12.1271 -3.72471 4.38338
2 -2.51154 -12.1075 -4.31087
2 9.46502 -8.50198 4.48502
3 1.1824 -2.37157 13.0183
3 -1.32566 -2.3474 -13.0374
1 10.8787 4.86411 -6.42454
2 1.66399 11.1324 6.47118
2 -9.34014 6.94872 -6.29885
1 -10.8172 -4.72769 6.39278
1 -1.22857 -11.5592 -6.58891
2 9.25116 -6.96453 6.62869
3 -1.56251 -2.37776 13.1428
2 -2.73066 -0.11934 -12.8672
1 9.42334 5.30348 -8.45193
3 0.237123 10.6071 8.48144
2 -9.34479 5.31155 -8.58454
2 -9.57185 -5.32817 8.66422
2 9.14552 -5.42794 8.75763
2 -4.07494 -2.25893 13.3332
1 -3.97287 2.66398 -12.9882
3 11.1242 0.780965 3.30444
1 5.3107 12.5209 -2.00453
1 -7.90205 10.8772 2.43833
1 -13.4955 -1.59935 -2.42456
2 -5.43509 -12.378 2.10184
1 7.98935 -10.7325 -2.0552
1 10.0786 -1.55672 3.18656
3 5.32492 10.9854 -4.33024
1 -6.60843 9.74737 4.68689
2 -12.2103 -0.560852 -4.5952
1 -5.38222 -11.0072 4.4497
2 6.78996 -9.95685 -4.35933
2 10.2887 0.0885386 5.83907
2 5.49686 9.51848 -6.29392
2 -10.6339 -0.164 -6.64628
3 -5.42633 -9.48482 6.66657
1 5.26173 -9.24005 -6.32679
2 9.29976 -0.691353 8.33473
1 5.43577 7.35687 -8.40567
3 -4.24613 8.18331 8.71036
3 -9.1919 0.650323 -8.72829
2 -5.66452 -8.02852 8.89808
3 4.12454 -8.29248 -8.42947
2 5.36856 6.26151 -10.5393
2 -2.93684 7.49948 10.8685
2 -7.7917 1.66407 -10.8927
3 -5.60188 -6.32176 10.8569
1 2.73256 -7.44927 -10.4917
2 12.3984 5.36436 -2.19343
2 1.47367 12.5692 1.8412
2 -10.5488 7.55096 -2.27436
2 -12.3006 -5.42266 2.14045
2 -1.2181 -13.1509 -2.20885
1 10.8644 -7.45401 2.1412
2 2.60065 -1.52559 11.1436
3 1.21178 -2.19008 -13.0312
1 11.0045 6.37475 -4.46035
2 0.276603 12.0993 4.282
1 -10.6648 6.04652 -4.28147
2 10.6623 -6.20833 4.19301
2 -0.110584 -0.125068 13.1183
1 -0.153512 0.219112 -12.5751
1 9.5401 7.14815 -6.47098
2 -1.12992 11.2901 6.47675
2 -10.7739 4.44673 -6.44244
1 -9.52411 -6.99114 6.36221
2 10.4933 -4.6117 6.55665
2 -2.85925 -0.0639076 13.2241
2 -1.54951 2.55206 -13.016
3 -12.1952 -3.97358 -2.3405
2 9.25467 -8.50887 -2.13946
2 9.78892 3.18336 3.5037
1 2.80509 11.0107 -4.14037
3 -7.98237 7.56682 4.56737
2 -2.63536 -10.9626 4.52917
3 7.88285 -7.58387 -4.21975
3 9.22049 2.51111 6.23339
2 2.81296 9.30828 -6.39162
1 -6.90614 6.8291 6.68335
2 -9.38155 -2.3663 -6.66982
3 -2.60905 -9.48473 6.66411
2 8.15001 1.67454 8.38901
3 2.61116 7.8172 -8.53115
1 -5.6662 5.87773 8.82581
1 -7.9805 -1.53224 -8.88539
1 -2.68746 -8.03534 8.90037
1 5.52134 -6.12314 -8.21076
2 5.50376 1.52524 9.12011
2 2.61822 6.31655 -10.7435
3 -4.12278 5.14228 10.964
3 -6.82464 -0.827116 -11.0066
2 -2.8117 -6.22403 11.0545
2 3.81476 -5.16798 -10.3909
1 11.5031 7.53762 -2.25544
2 -1.34477 12.6906 1.80079
2 -12.0495 5.4145 -2.2601
2 -10.8324 -7.56695 2.04482
2 1.4626 -12.9134 -2.10751
2 12.2316 -5.40804 2.09706
2 -0.044949 2.87819 11.0302
2 2.40498 0.23511 -12.6059
2 9.49803 8.72156 -4.31305
2 -2.75983 12.2566 4.2343
3 -12.0035 3.87324 -4.27031
3 -9.45468 -8.51468 3.98238
2 2.82026 -12.2537 -4.36413
2 11.5539 -3.51272 4.31118
3 -2.82327 2.91007 11.0462
3 1.11958 2.54488 -12.6492
2 8.35947 5.7124 2.67418
3 -0.111285 12.489 -2.30961
2 -10.9713 -6.284 -2.27839
2 10.6716 -6.27076 -2.24399
1 8.18031 4.5879 5.21227
2 -0.116686 10.8466 -4.15804
2 -9.3599 -5.29657 -4.46213
2 -0.0931498 -11.0534 4.39041
3 9.29961 -5.37897 -4.36531
2 8.91131 4.3456 7.82428
2 0.222196 9.15329 -6.12752
2 0.0902918 -9.44494 6.66443
2 8.12847 -4.86824 -6.62212
2 0.0691171 7.85745 -8.49236
1 -7.88359 4.5894 7.80356
2 -6.60037 -3.8194 -8.84905
2 -0.0289068 -7.95664 8.9989
2 5.22161 3.13672 11.2505
2 0.0100136 6.24698 -10.5623
2 -5.56695 3.14967 10.7304
2 -5.29629 -3.24882 -10.9259
3 0.0622938 -6.46334 10.9203
2 5.40098 -2.9419 -10.5741
2 11.2074 10.017 -2.47869
1 -3.94277 13.0242 2.10749
2 -9.62637 -9.90586 1.7948
3 4.04607 -12.867 -2.02598
2 -0.143996 4.68432 13.3937
1 3.94515 2.39571 -12.868
3 9.07501 8.40091 2.09665
3 -2.56862 12.155 -2.08896
3 -9.49795 -8.44238 -2.50736
3 2.63962 -12.2538 2.237
1 12.2477 -3.28298 -2.11784
3 7.85934 7.26581 4.47706
1 -2.77027 10.806 -4.26217
2 -10.3071 3.36145 4.72307
3 -8.10104 -7.65456 -4.80132
2 2.61091 -10.9159 4.50284
1 10.7631 -3.28406 -4.27581
2 6.78607 5.98233 6.64094
2 -2.4356 9.29323 -6.34436
1 -9.45169 2.41537 6.89222
3 2.84952 -9.35222 6.70296
1 9.54755 -2.22925 -6.47518
2 5.37085 5.82936 9.02726
3 -2.39376 7.77913 -8.63002
1 -8.049 2.16568 8.92931
3 -5.45638 -6.18137 -8.7057
2 2.78602 -7.76523 8.92377
3 8.10525 -1.3553 -8.54418
3 4.12301 5.29306 11.2575
2 -2.60645 6.29729 -10.962
2 -6.91513 0.854079 10.6615
1 -4.02193 -5.47694 -10.81
2 2.46069 -6.15892 11.1727
2 6.65905 -0.752795 -10.6486
2 8.00537 10.8526 2.13224
1 -5.36399 12.4102 -1.65992
3 -13.6419 1.46723 2.12961
3 -8.02822 -10.8653 -2.44901
1 -11.9425 0.870548 4.38141
2 -6.69321 -10.1219 -4.68099
3 5.36611 -10.7741 4.30219
1 12.3107 -1.00778 -3.89086
1 5.55304 8.6954 6.54256
2 -5.04567 9.33695 -6.3378
2 -10.8015 0.0580359 6.49447
2 5.38329 -9.30263 6.59381
1 10.926 -0.073952 -6.23906
2 4.17598 8.27916 8.95962
2 -5.22732 7.79258 -8.58514
2 -9.4285 -0.586981 8.68057
1 -4.07458 -8.60155 -8.70089
3 5.38121 -7.79348 8.92141
2 9.46533 0.710648 -8.51739
2 2.69012 7.76519 11.1571
2 -5.21299 6.29297 -10.6953
2 -8.06239 -1.54872 10.9343
3 -2.67241 -7.72588 -10.8014
2 5.1066 -6.18172 11.0082
2 8.10128 1.50221 -10.6465
3 16.9265 -0.130021 -0.810698
3 9.50839 16.1647 -0.24619
3 -9.13473 16.0377 0.0368995
3 -18.5679 0.0928385 -0.296253
2 9.34035 -16.2334 0.0636083
1 9.359 -5.27583 16.3357
2 -9.84236 -5.3043 15.1475
3 0.296417 -10.7922 -15.0074
3 -9.43144 5.62079 -15.1782
3 15.8202 2.05981 -0.264343
1 15.5423 -1.06329 1.27383
2 6.70845 16.622 -0.00518292
2 5.32556 15.7574 2.43083
1 9.131 14.8287 -2.50176
3 -10.4023 13.9023 0.167877
3 -9.21369 14.6344 -1.86057
1 -17.374 -2.35373 -0.420964
2 -17.3754 0.988091 -2.43816
2 -6.77834 -16.2825 0.0475579
3 -9.39261 -14.7676 2.16913
2 -7.93309 -15.6133 -2.33147
1 10.5301 -13.6934 0.166581
2 9.53785 -14.8165 2.27834
2 7.78529 -15.2087 -2.25515
2 8.9778 -2.48181 14.9721
1 5.70522 -5.30683 15.0829
1 -1.34209 8.76794 15.2044
3 1.68936 -8.43986 -15.2341
3 -0.989569 -8.46772 -15.1858
2 6.77619 5.50983 -15.1687
2 16.8864 4.25923 -0.599618
1 14.8974 -2.02345 3.68284
2 15.9336 1.08373 -4.64662
1 4.05813 16.5917 0.158119
3 3.84917 15.0315 4.46326
1 9.26362 13.0569 -4.72302
2 -6.41274 14.3488 4.30688
3 -9.15286 12.8633 -4.14562
2 -16.3584 -4.79538 -0.0201813
2 -16.2411 -1.50581 4.37936
3 -15.9932 1.77096 -4.4834
2 -4.17455 -16.2075 0.288965
2 -9.61824 -13.3043 4.22134
2 -6.24734 -14.7459 -4.34459
3 12.1038 -11.595 0.0297889
1 9.37437 -13.0399 4.4984
1 6.43466 -14.5603 -4.22985
1 4.84209 -0.745877 13.5659
2 3.07573 -5.25638 15.6874
1 -2.45554 6.1788 15.5133
2 2.67337 -6.19813 -15.0083
2 -2.44912 -6.20758 -15.1776
1 3.66105 5.68393 -14.886
1 14.0606 -2.18825 6.2144
3 15.0039 1.87294 -6.89111
1 1.39064 16.7482 0.181193
2 5.31721 14.3999 6.66026
3 9.18286 12.0605 -7.04462
2 -13.4347 9.15799 0.0392223
1 -5.1347 13.8641 6.46117
1 -9.08962 11.6915 -6.52215
3 -14.9568 -7.03975 0.0199322
2 -14.8719 -2.04357 6.52521
2 -14.5956 2.40522 -6.62593
2 -1.47644 -16.2516 0.0965185
1 -6.76219 -11.9161 6.60256
2 -5.27257 -14.0307 -6.65823
2 13.3649 -9.20744 0.0844332
3 9.51923 -11.6126 6.6787
2 5.28718 -13.8305 -6.14906
1 4.44331 2.24267 13.5832
3 0.866267 -6.75547 14.5898
1 -3.84948 4.06957 15.7365
1 4.01695 -3.84319 -15.1271
2 -3.9702 -3.93196 -15.4776
3 1.04088 5.52889 -15.1187
2 12.8174 9.10109 -0.506343
1 13.1593 -2.92853 8.91908
2 13.7753 3.17728 -8.90652
2 -1.29926 16.1496 0.00934591
2 9.94591 10.3029 -8.89148
1 -14.5554 6.86862 0.130542
3 -3.68864 13.1135 8.60631
2 -9.0641 10.2097 -8.61651
3 -13.4862 -9.43826 -0.211629
1 -13.6262 -2.88217 8.77742
1 -13.2843 3.00868 -8.73189
3 1.22583 -16.0144 -0.0026502
2 -9.54335 -10.1511 8.56928
2 -3.73348 -13.0199 -8.84297
3 14.791 -7.08058 -0.168108
2 4.20177 -12.9105 -8.56241
1 -1.27095 -5.4494 15.2723
2 -5.33591 1.40071 15.5898
1 5.38085 -1.54658 -15.0952
3 -1.32424 5.64694 -15.2159
1 11.7923 11.4042 -0.444123
2 11.9072 -3.77676 10.7726
2 12.0208 3.90189 -10.975
3 -3.83784 16.0126 0.169043
3 3.07628 12.103 10.7844
3 9.50382 8.61128 -10.7092
1 -15.9454 4.70977 -0.0840458
3 -2.48671 12.4718 10.7003
2 -9.11921 8.45346 -10.6403
3 -12.1872 -11.6663 -0.209016
3 -12.3169 -3.66056 10.6844
2 -12.18 3.65631 -10.814
3 3.91361 -16.0289 0.121829
3 -9.67184 -8.49568 10.9989
2 -2.41292 -12.1999 -10.8919
3 16.1203 -5.17271 0.0315899
3 9.20168 -8.36098 11.0902
2 2.82288 -12.1021 -10.7076
2 2.6662 4.41134 13.3132
2 -4.42155 -5.46774 15.3787
2 -6.98106 -0.976744 15.3961
3 6.63587 0.907927 -15.1735
3 -6.92972 0.850556 -15.3208
3 -4.08266 5.3414 -15.1672
1 10.7065 13.9509 -0.273835
3 10.9772 -4.85332 12.9401
3 9.24665 2.57637 -12.8095
1 -6.45664 16.1788 0.29226
3 1.238 11.4269 12.9087
3 9.32327 7.24168 -12.7865
3 -17.3521 2.30123 -0.129129
2 -1.31913 11.7241 12.8007
1 -7.92362 4.67418 -13.2861
3 -10.8964 -13.8977 -0.0961738
3 6.66288 -16.2507 -0.096666
2 -9.68033 -6.90728 13.0738
3 -1.09841 -11.4249 -12.8593
1 16.5011 -2.73001 -0.305598
2 9.21447 -6.71124 13.2314
2 1.49774 -11.3758 -12.7895
2 1.58878 8.73115 15.3907
1 -7.44574 -5.74747 15.6361
1 -8.12873 -3.03095 15.3273
2 7.87376 3.25586 -15.1268
3 -7.96825 3.04478 -15.2832
3 -6.84889 5.37487 -15.3945
2 16.7089 2.75202 -2.60816
2 3.96675 13.6423 2.21861
3 -10.6283 12.1097 -2.18707
1 -16.0665 -2.99458 1.99818
2 10.7562 -12.0949 2.23817
1 4.54578 -3.49058 13.6268
1 0.145535 -6.27506 -15.0912
2 15.0946 3.35938 -4.66589
2 1.36224 14.4879 3.95097
1 -10.6723 10.7663 -4.41624
3 -14.7507 -3.68709 4.20388
1 -3.83865 -14.6874 -4.51236
3 10.7358 -10.7612 4.60415
3 2.37963 -2.85796 15.0241
1 -1.38393 -3.97714 -15.4093
1 14.2301 4.49257 -6.78631
3 2.93209 13.2998 6.24816
1 -13.564 -4.41682 6.50762
3 -2.53318 -13.9657 -6.67464
3 10.755 -9.36408 6.7165
2 -0.180238 -2.96706 15.2219
1 -2.76138 -1.62347 -14.8499
1 1.56789 12.8312 8.86381
1 -10.61 7.6123 -8.73258
1 -12.2767 -5.49831 8.64299
2 10.7135 -7.74666 8.79852
3 -2.70862 -3.19634 15.3503
3 -4.08528 0.713555 -14.8961
3 10.8534 6.26976 -10.791
3 0.250445 12.4349 10.9647
2 -11.0353 -6.25081 10.9137
1 0.233046 -12.1283 -10.6694
2 10.5548 -6.34308 10.9758
3 -5.49919 -3.17524 15.2415
3 -5.33787 3.35087 -15.1853
3 14.9783 1.28869 2.11936
3 6.64205 14.8975 -2.09148
3 -9.11096 13.0464 2.2964
1 -16.1185 -1.50561 -2.39792
3 -6.65033 -14.6231 2.04859
3 9.3393 -13.1967 -2.1657
2 13.7568 0.892758 4.19755
2 6.67395 13.2954 -4.19739
2 -8.08329 12.0751 4.82752
1 -14.7937 -0.637658 -4.72969
2 -6.83432 -13.3193 4.30675
1 7.97103 -12.378 -4.30025
2 12.8599 0.472873 6.77361
2 6.69194 11.8283 -6.41402
2 -6.4605 11.4932 6.68829
3 -13.3345 0.0160204 -6.79261
2 7.44063 -10.4745 -6.95461
1 11.8731 -0.501987 8.78751
2 6.85289 10.3017 -8.80506
3 -5.11234 10.7762 8.81891
2 -11.9816 0.696517 -8.87015
1 -6.82786 -10.1542 8.73086
3 5.31061 -10.5158 -8.55788
3 10.5184 -1.66677 10.6271
2 6.93058 8.4831 -10.7329
3 -3.77006 9.85376 10.6362
2 -10.6506 1.41263 -10.956
1 -6.93177 -8.6902 11.0675
2 3.97911 -9.71759 -10.5283
2 11.0849 -2.30835 13.0255
1 -2.59296 9.39736 12.8652
1 -7.94787 -0.15172 -13.181
3 -6.97383 -6.9451 13.2228
2 2.80099 -9.04773 -12.8989
1 14.4429 4.07616 -1.17998
2 -11.8204 9.89669 -2.1436
1 -14.8689 -5.43744 2.07449
2 -2.76966 -15.3941 -2.2079
3 12.0284 -9.90423 2.2145
2 2.46796 -0.15338 13.6015
1 1.24928 -3.70365 -15.2594
2 14.02 5.88251 -4.70957
1 0.0350706 15.1423 1.89536
2 -11.8248 8.4393 -4.30829
2 -13.5251 -6.07493 4.36287
2 -1.414 -14.3413 -4.37176
3 12.0663 -8.5556 4.27328
2 -0.080632 -1.36809 -15.1299
2 12.4238 6.95228 -6.54481
2 0.4128 13.5147 6.52063
2 -11.9204 6.92377 -6.54391
2 -12.1336 -6.98325 6.55411
1 0.153066 -13.707 -6.65122
3 11.9543 -6.8366 6.42893
1 -1.48311 -0.742723 15.2315
3 -1.47007 0.780405 -14.929
1 10.942 7.84366 -8.67319
1 -1.10913 12.8766 8.61137
1 -11.865 5.29788 -8.85559
2 -10.7883 -7.73396 8.63644
2 1.29373 -11.6349 -6.64902
3 11.8582 -5.38308 8.64606
3 -4.18226 -0.706867 15.5248
3 14.4068 3.52645 1.44216
1 3.91193 15.0067 -2.12971
1 -10.5881 10.7593 2.27322
2 -14.9081 -3.93229 -2.34252
2 -4.05818 -14.6547 2.18123
2 10.6726 -10.8423 -2.01211
2 12.3415 3.10077 2.91619
1 4.06275 13.4184 -4.38029
1 -9.17053 9.92549 4.58934
1 -13.216 -3.08785 -4.60782
2 -3.93755 -13.1851 4.21197
1 9.36052 -10.0042 -4.31981
2 11.5672 2.40014 5.31729
3 4.0743 11.7319 -6.41463
3 -7.98227 9.21088 6.72155
2 -12.143 -2.21913 -6.71838
3 -3.96696 -11.7324 6.61899
2 10.8756 1.69504 8.04041
2 4.02402 10.1783 -8.50299
1 -10.7192 -1.6952 -9.08963
3 -4.07378 -10.3979 8.70211
3 6.79097 -8.17369 -8.33523
1 8.55618 0.27123 10.5897
1 4.10195 8.59763 -10.6019
3 -5.4722 7.70017 10.7789
2 -9.37487 -1.04239 -11.1313
2 -4.19703 -8.59443 11.0316
3 5.33423 -7.53356 -10.4485
1 6.41049 1.04544 12.0771
3 4.04988 7.10636 -12.7657
2 -4.3858 7.00425 12.9195
2 -4.27527 -7.09125 13.172
2 4.14671 -6.68195 -12.6313
1 13.824 9.84159 -2.93295
2 -13.2617 7.64482 -2.25698
1 -13.535 -7.81748 2.04338
3 13.6333 -7.85326 2.28331