LAMMPS DATA FOR MEAM SIMULATION

   1048   atoms
      2   atom types

  -23.74   23.74   xlo xhi
  -23.74   23.74   ylo yhi
  -23.74   23.74   zlo zhi

 Atoms

     1   1    -1.96222    -5.88666   -13.73555
     2   1     1.96222    -5.88666   -13.73555
     3   1    -5.88666    -1.96222   -13.73555
     4   1    -1.96222    -1.96222   -13.73555
     5   1     1.96222    -1.96222   -13.73555
     6   1     5.88666    -1.96222   -13.73555
     7   1    -5.88666     1.96222   -13.73555
     8   1    -1.96222     1.96222   -13.73555
     9   1     1.96222     1.96222   -13.73555
    10   1     5.88666     1.96222   -13.73555
    11   1    -1.96222     5.88666   -13.73555
    12   1     1.96222     5.88666   -13.73555
    13   1    -5.88666    -9.81111    -9.81111
    14   1    -1.96222    -9.81111    -9.81111
    15   1     1.96222    -9.81111    -9.81111
    16   1     5.88666    -9.81111    -9.81111
    17   1    -9.81111    -5.88666    -9.81111
    18   1    -5.88666    -5.88666    -9.81111
    19   2    -1.96222    -5.88666    -9.81111
    20   2     1.96222    -5.88666    -9.81111
    21   1     5.88666    -5.88666    -9.81111
    22   1     9.81111    -5.88666    -9.81111
    23   1    -9.81111    -1.96222    -9.81111
    24   2    -5.88666    -1.96222    -9.81111
    25   2    -1.96222    -1.96222    -9.81111
    26   2     1.96222    -1.96222    -9.81111
    27   2     5.88666    -1.96222    -9.81111
    28   1     9.81111    -1.96222    -9.81111
    29   1    -9.81111     1.96222    -9.81111
    30   2    -5.88666     1.96222    -9.81111
    31   2    -1.96222     1.96222    -9.81111
    32   2     1.96222     1.96222    -9.81111
    33   2     5.88666     1.96222    -9.81111
    34   1     9.81111     1.96222    -9.81111
    35   1    -9.81111     5.88666    -9.81111
    36   1    -5.88666     5.88666    -9.81111
    37   2    -1.96222     5.88666    -9.81111
    38   2     1.96222     5.88666    -9.81111
    39   1     5.88666     5.88666    -9.81111
    40   1     9.81111     5.88666    -9.81111
    41   1    -5.88666     9.81111    -9.81111
    42   1    -1.96222     9.81111    -9.81111
    43   1     1.96222     9.81111    -9.81111
    44   1     5.88666     9.81111    -9.81111
    45   1    -1.96222   -13.73555    -5.88666
    46   1     1.96222   -13.73555    -5.88666
    47   1    -9.81111    -9.81111    -5.88666
    48   1    -5.88666    -9.81111    -5.88666
    49   2    -1.96222    -9.81111    -5.88666
    50   2     1.96222    -9.81111    -5.88666
    51   1     5.88666    -9.81111    -5.88666
    52   1     9.81111    -9.81111    -5.88666
    53   1    -9.81111    -5.88666    -5.88666
    54   2    -5.88666    -5.88666    -5.88666
    55   2    -1.96222    -5.88666    -5.88666
    56   2     1.96222    -5.88666    -5.88666
    57   2     5.88666    -5.88666    -5.88666
    58   1     9.81111    -5.88666    -5.88666
    59   1   -13.73555    -1.96222    -5.88666
    60   2    -9.81111    -1.96222    -5.88666
    61   2    -5.88666    -1.96222    -5.88666
    62   2    -1.96222    -1.96222    -5.88666
    63   2     1.96222    -1.96222    -5.88666
    64   2     5.88666    -1.96222    -5.88666
    65   2     9.81111    -1.96222    -5.88666
    66   1    13.73555    -1.96222    -5.88666
    67   1   -13.73555     1.96222    -5.88666
    68   2    -9.81111     1.96222    -5.88666
    69   2    -5.88666     1.96222    -5.88666
    70   2    -1.96222     1.96222    -5.88666
    71   2     1.96222     1.96222    -5.88666
    72   2     5.88666     1.96222    -5.88666
    73   2     9.81111     1.96222    -5.88666
    74   1    13.73555     1.96222    -5.88666
    75   1    -9.81111     5.88666    -5.88666
    76   2    -5.88666     5.88666    -5.88666
    77   2    -1.96222     5.88666    -5.88666
    78   2     1.96222     5.88666    -5.88666
    79   2     5.88666     5.88666    -5.88666
    80   1     9.81111     5.88666    -5.88666
    81   1    -9.81111     9.81111    -5.88666
    82   1    -5.88666     9.81111    -5.88666
    83   2    -1.96222     9.81111    -5.88666
    84   2     1.96222     9.81111    -5.88666
    85   1     5.88666     9.81111    -5.88666
    86   1     9.81111     9.81111    -5.88666
    87   1    -1.96222    13.73555    -5.88666
    88   1     1.96222    13.73555    -5.88666
    89   1    -5.88666   -13.73555    -1.96222
    90   1    -1.96222   -13.73555    -1.96222
    91   1     1.96222   -13.73555    -1.96222
    92   1     5.88666   -13.73555    -1.96222
    93   1    -9.81111    -9.81111    -1.96222
    94   2    -5.88666    -9.81111    -1.96222
    95   2    -1.96222    -9.81111    -1.96222
    96   2     1.96222    -9.81111    -1.96222
    97   2     5.88666    -9.81111    -1.96222
    98   1     9.81111    -9.81111    -1.96222
    99   1   -13.73555    -5.88666    -1.96222
   100   2    -9.81111    -5.88666    -1.96222
   101   2    -5.88666    -5.88666    -1.96222
   102   2    -1.96222    -5.88666    -1.96222
   103   2     1.96222    -5.88666    -1.96222
   104   2     5.88666    -5.88666    -1.96222
   105   2     9.81111    -5.88666    -1.96222
   106   1    13.73555    -5.88666    -1.96222
   107   1   -13.73555    -1.96222    -1.96222
   108   2    -9.81111    -1.96222    -1.96222
   109   2    -5.88666    -1.96222    -1.96222
   110   2    -1.96222    -1.96222    -1.96222
   111   2     1.96222    -1.96222    -1.96222
   112   2     5.88666    -1.96222    -1.96222
   113   2     9.81111    -1.96222    -1.96222
   114   1    13.73555    -1.96222    -1.96222
   115   1   -13.73555     1.96222    -1.96222
   116   2    -9.81111     1.96222    -1.96222
   117   2    -5.88666     1.96222    -1.96222
   118   2    -1.96222     1.96222    -1.96222
   119   2     1.96222     1.96222    -1.96222
   120   2     5.88666     1.96222    -1.96222
   121   2     9.81111     1.96222    -1.96222
   122   1    13.73555     1.96222    -1.96222
   123   1   -13.73555     5.88666    -1.96222
   124   2    -9.81111     5.88666    -1.96222
   125   2    -5.88666     5.88666    -1.96222
   126   2    -1.96222     5.88666    -1.96222
   127   2     1.96222     5.88666    -1.96222
   128   2     5.88666     5.88666    -1.96222
   129   2     9.81111     5.88666    -1.96222
   130   1    13.73555     5.88666    -1.96222
   131   1    -9.81111     9.81111    -1.96222
   132   2    -5.88666     9.81111    -1.96222
   133   2    -1.96222     9.81111    -1.96222
   134   2     1.96222     9.81111    -1.96222
   135   2     5.88666     9.81111    -1.96222
   136   1     9.81111     9.81111    -1.96222
   137   1    -5.88666    13.73555    -1.96222
   138   1    -1.96222    13.73555    -1.96222
   139   1     1.96222    13.73555    -1.96222
   140   1     5.88666    13.73555    -1.96222
   141   1    -5.88666   -13.73555     1.96222
   142   1    -1.96222   -13.73555     1.96222
   143   1     1.96222   -13.73555     1.96222
   144   1     5.88666   -13.73555     1.96222
   145   1    -9.81111    -9.81111     1.96222
   146   2    -5.88666    -9.81111     1.96222
   147   2    -1.96222    -9.81111     1.96222
   148   2     1.96222    -9.81111     1.96222
   149   2     5.88666    -9.81111     1.96222
   150   1     9.81111    -9.81111     1.96222
   151   1   -13.73555    -5.88666     1.96222
   152   2    -9.81111    -5.88666     1.96222
   153   2    -5.88666    -5.88666     1.96222
   154   2    -1.96222    -5.88666     1.96222
   155   2     1.96222    -5.88666     1.96222
   156   2     5.88666    -5.88666     1.96222
   157   2     9.81111    -5.88666     1.96222
   158   1    13.73555    -5.88666     1.96222
   159   1   -13.73555    -1.96222     1.96222
   160   2    -9.81111    -1.96222     1.96222
   161   2    -5.88666    -1.96222     1.96222
   162   2    -1.96222    -1.96222     1.96222
   163   2     1.96222    -1.96222     1.96222
   164   2     5.88666    -1.96222     1.96222
   165   2     9.81111    -1.96222     1.96222
   166   1    13.73555    -1.96222     1.96222
   167   1   -13.73555     1.96222     1.96222
   168   2    -9.81111     1.96222     1.96222
   169   2    -5.88666     1.96222     1.96222
   170   2    -1.96222     1.96222     1.96222
   171   2     1.96222     1.96222     1.96222
   172   2     5.88666     1.96222     1.96222
   173   2     9.81111     1.96222     1.96222
   174   1    13.73555     1.96222     1.96222
   175   1   -13.73555     5.88666     1.96222
   176   2    -9.81111     5.88666     1.96222
   177   2    -5.88666     5.88666     1.96222
   178   2    -1.96222     5.88666     1.96222
   179   2     1.96222     5.88666     1.96222
   180   2     5.88666     5.88666     1.96222
   181   2     9.81111     5.88666     1.96222
   182   1    13.73555     5.88666     1.96222
   183   1    -9.81111     9.81111     1.96222
   184   2    -5.88666     9.81111     1.96222
   185   2    -1.96222     9.81111     1.96222
   186   2     1.96222     9.81111     1.96222
   187   2     5.88666     9.81111     1.96222
   188   1     9.81111     9.81111     1.96222
   189   1    -5.88666    13.73555     1.96222
   190   1    -1.96222    13.73555     1.96222
   191   1     1.96222    13.73555     1.96222
   192   1     5.88666    13.73555     1.96222
   193   1    -1.96222   -13.73555     5.88666
   194   1     1.96222   -13.73555     5.88666
   195   1    -9.81111    -9.81111     5.88666
   196   1    -5.88666    -9.81111     5.88666
   197   2    -1.96222    -9.81111     5.88666
   198   2     1.96222    -9.81111     5.88666
   199   1     5.88666    -9.81111     5.88666
   200   1     9.81111    -9.81111     5.88666
   201   1    -9.81111    -5.88666     5.88666
   202   2    -5.88666    -5.88666     5.88666
   203   2    -1.96222    -5.88666     5.88666
   204   2     1.96222    -5.88666     5.88666
   205   2     5.88666    -5.88666     5.88666
   206   1     9.81111    -5.88666     5.88666
   207   1   -13.73555    -1.96222     5.88666
   208   2    -9.81111    -1.96222     5.88666
   209   2    -5.88666    -1.96222     5.88666
   210   2    -1.96222    -1.96222     5.88666
   211   2     1.96222    -1.96222     5.88666
   212   2     5.88666    -1.96222     5.88666
   213   2     9.81111    -1.96222     5.88666
   214   1    13.73555    -1.96222     5.88666
   215   1   -13.73555     1.96222     5.88666
   216   2    -9.81111     1.96222     5.88666
   217   2    -5.88666     1.96222     5.88666
   218   2    -1.96222     1.96222     5.88666
   219   2     1.96222     1.96222     5.88666
   220   2     5.88666     1.96222     5.88666
   221   2     9.81111     1.96222     5.88666
   222   1    13.73555     1.96222     5.88666
   223   1    -9.81111     5.88666     5.88666
   224   2    -5.88666     5.88666     5.88666
   225   2    -1.96222     5.88666     5.88666
   226   2     1.96222     5.88666     5.88666
   227   2     5.88666     5.88666     5.88666
   228   1     9.81111     5.88666     5.88666
   229   1    -9.81111     9.81111     5.88666
   230   1    -5.88666     9.81111     5.88666
   231   2    -1.96222     9.81111     5.88666
   232   2     1.96222     9.81111     5.88666
   233   1     5.88666     9.81111     5.88666
   234   1     9.81111     9.81111     5.88666
   235   1    -1.96222    13.73555     5.88666
   236   1     1.96222    13.73555     5.88666
   237   1    -5.88666    -9.81111     9.81111
   238   1    -1.96222    -9.81111     9.81111
   239   1     1.96222    -9.81111     9.81111
   240   1     5.88666    -9.81111     9.81111
   241   1    -9.81111    -5.88666     9.81111
   242   1    -5.88666    -5.88666     9.81111
   243   2    -1.96222    -5.88666     9.81111
   244   2     1.96222    -5.88666     9.81111
   245   1     5.88666    -5.88666     9.81111
   246   1     9.81111    -5.88666     9.81111
   247   1    -9.81111    -1.96222     9.81111
   248   2    -5.88666    -1.96222     9.81111
   249   2    -1.96222    -1.96222     9.81111
   250   2     1.96222    -1.96222     9.81111
   251   2     5.88666    -1.96222     9.81111
   252   1     9.81111    -1.96222     9.81111
   253   1    -9.81111     1.96222     9.81111
   254   2    -5.88666     1.96222     9.81111
   255   2    -1.96222     1.96222     9.81111
   256   2     1.96222     1.96222     9.81111
   257   2     5.88666     1.96222     9.81111
   258   1     9.81111     1.96222     9.81111
   259   1    -9.81111     5.88666     9.81111
   260   1    -5.88666     5.88666     9.81111
   261   2    -1.96222     5.88666     9.81111
   262   2     1.96222     5.88666     9.81111
   263   1     5.88666     5.88666     9.81111
   264   1     9.81111     5.88666     9.81111
   265   1    -5.88666     9.81111     9.81111
   266   1    -1.96222     9.81111     9.81111
   267   1     1.96222     9.81111     9.81111
   268   1     5.88666     9.81111     9.81111
   269   1    -1.96222    -5.88666    13.73555
   270   1     1.96222    -5.88666    13.73555
   271   1    -5.88666    -1.96222    13.73555
   272   1    -1.96222    -1.96222    13.73555
   273   1     1.96222    -1.96222    13.73555
   274   1     5.88666    -1.96222    13.73555
   275   1    -5.88666     1.96222    13.73555
   276   1    -1.96222     1.96222    13.73555
   277   1     1.96222     1.96222    13.73555
   278   1     5.88666     1.96222    13.73555
   279   1    -1.96222     5.88666    13.73555
   280   1     1.96222     5.88666    13.73555
   281   1    -3.92444    -3.92444   -13.73555
   282   1     0.00000    -3.92444   -13.73555
   283   1     3.92444    -3.92444   -13.73555
   284   1    -3.92444     0.00000   -13.73555
   285   1     0.00000     0.00000   -13.73555
   286   1     3.92444     0.00000   -13.73555
   287   1    -3.92444     3.92444   -13.73555
   288   1     0.00000     3.92444   -13.73555
   289   1     3.92444     3.92444   -13.73555
   290   1     0.00000   -11.77333    -9.81111
   291   1    -7.84889    -7.84889    -9.81111
   292   1    -3.92444    -7.84889    -9.81111
   293   1     0.00000    -7.84889    -9.81111
   294   1     3.92444    -7.84889    -9.81111
   295   1     7.84889    -7.84889    -9.81111
   296   1    -7.84889    -3.92444    -9.81111
   297   2    -3.92444    -3.92444    -9.81111
   298   2     0.00000    -3.92444    -9.81111
   299   2     3.92444    -3.92444    -9.81111
   300   1     7.84889    -3.92444    -9.81111
   301   1   -11.77333     0.00000    -9.81111
   302   1    -7.84889     0.00000    -9.81111
   303   2    -3.92444     0.00000    -9.81111
   304   2     0.00000     0.00000    -9.81111
   305   2     3.92444     0.00000    -9.81111
   306   1     7.84889     0.00000    -9.81111
   307   1    11.77333     0.00000    -9.81111
   308   1    -7.84889     3.92444    -9.81111
   309   2    -3.92444     3.92444    -9.81111
   310   2     0.00000     3.92444    -9.81111
   311   2     3.92444     3.92444    -9.81111
   312   1     7.84889     3.92444    -9.81111
   313   1    -7.84889     7.84889    -9.81111
   314   1    -3.92444     7.84889    -9.81111
   315   1     0.00000     7.84889    -9.81111
   316   1     3.92444     7.84889    -9.81111
   317   1     7.84889     7.84889    -9.81111
   318   1     0.00000    11.77333    -9.81111
   319   1    -7.84889   -11.77333    -5.88666
   320   1    -3.92444   -11.77333    -5.88666
   321   1     0.00000   -11.77333    -5.88666
   322   1     3.92444   -11.77333    -5.88666
   323   1     7.84889   -11.77333    -5.88666
   324   1   -11.77333    -7.84889    -5.88666
   325   1    -7.84889    -7.84889    -5.88666
   326   2    -3.92444    -7.84889    -5.88666
   327   2     0.00000    -7.84889    -5.88666
   328   2     3.92444    -7.84889    -5.88666
   329   1     7.84889    -7.84889    -5.88666
   330   1    11.77333    -7.84889    -5.88666
   331   1   -11.77333    -3.92444    -5.88666
   332   2    -7.84889    -3.92444    -5.88666
   333   2    -3.92444    -3.92444    -5.88666
   334   2     0.00000    -3.92444    -5.88666
   335   2     3.92444    -3.92444    -5.88666
   336   2     7.84889    -3.92444    -5.88666
   337   1    11.77333    -3.92444    -5.88666
   338   1   -11.77333     0.00000    -5.88666
   339   2    -7.84889     0.00000    -5.88666
   340   2    -3.92444     0.00000    -5.88666
   341   2     0.00000     0.00000    -5.88666
   342   2     3.92444     0.00000    -5.88666
   343   2     7.84889     0.00000    -5.88666
   344   1    11.77333     0.00000    -5.88666
   345   1   -11.77333     3.92444    -5.88666
   346   2    -7.84889     3.92444    -5.88666
   347   2    -3.92444     3.92444    -5.88666
   348   2     0.00000     3.92444    -5.88666
   349   2     3.92444     3.92444    -5.88666
   350   2     7.84889     3.92444    -5.88666
   351   1    11.77333     3.92444    -5.88666
   352   1   -11.77333     7.84889    -5.88666
   353   1    -7.84889     7.84889    -5.88666
   354   2    -3.92444     7.84889    -5.88666
   355   2     0.00000     7.84889    -5.88666
   356   2     3.92444     7.84889    -5.88666
   357   1     7.84889     7.84889    -5.88666
   358   1    11.77333     7.84889    -5.88666
   359   1    -7.84889    11.77333    -5.88666
   360   1    -3.92444    11.77333    -5.88666
   361   1     0.00000    11.77333    -5.88666
   362   1     3.92444    11.77333    -5.88666
   363   1     7.84889    11.77333    -5.88666
   364   1    -7.84889   -11.77333    -1.96222
   365   1    -3.92444   -11.77333    -1.96222
   366   2     0.00000   -11.77333    -1.96222
   367   1     3.92444   -11.77333    -1.96222
   368   1     7.84889   -11.77333    -1.96222
   369   1   -11.77333    -7.84889    -1.96222
   370   2    -7.84889    -7.84889    -1.96222
   371   2    -3.92444    -7.84889    -1.96222
   372   2     0.00000    -7.84889    -1.96222
   373   2     3.92444    -7.84889    -1.96222
   374   2     7.84889    -7.84889    -1.96222
   375   1    11.77333    -7.84889    -1.96222
   376   1   -11.77333    -3.92444    -1.96222
   377   2    -7.84889    -3.92444    -1.96222
   378   2    -3.92444    -3.92444    -1.96222
   379   2     0.00000    -3.92444    -1.96222
   380   2     3.92444    -3.92444    -1.96222
   381   2     7.84889    -3.92444    -1.96222
   382   1    11.77333    -3.92444    -1.96222
   383   2   -11.77333     0.00000    -1.96222
   384   2    -7.84889     0.00000    -1.96222
   385   2    -3.92444     0.00000    -1.96222
   386   2     0.00000     0.00000    -1.96222
   387   2     3.92444     0.00000    -1.96222
   388   2     7.84889     0.00000    -1.96222
   389   2    11.77333     0.00000    -1.96222
   390   1   -11.77333     3.92444    -1.96222
   391   2    -7.84889     3.92444    -1.96222
   392   2    -3.92444     3.92444    -1.96222
   393   2     0.00000     3.92444    -1.96222
   394   2     3.92444     3.92444    -1.96222
   395   2     7.84889     3.92444    -1.96222
   396   1    11.77333     3.92444    -1.96222
   397   1   -11.77333     7.84889    -1.96222
   398   2    -7.84889     7.84889    -1.96222
   399   2    -3.92444     7.84889    -1.96222
   400   2     0.00000     7.84889    -1.96222
   401   2     3.92444     7.84889    -1.96222
   402   2     7.84889     7.84889    -1.96222
   403   1    11.77333     7.84889    -1.96222
   404   1    -7.84889    11.77333    -1.96222
   405   1    -3.92444    11.77333    -1.96222
   406   2     0.00000    11.77333    -1.96222
   407   1     3.92444    11.77333    -1.96222
   408   1     7.84889    11.77333    -1.96222
   409   1    -7.84889   -11.77333     1.96222
   410   1    -3.92444   -11.77333     1.96222
   411   2     0.00000   -11.77333     1.96222
   412   1     3.92444   -11.77333     1.96222
   413   1     7.84889   -11.77333     1.96222
   414   1   -11.77333    -7.84889     1.96222
   415   2    -7.84889    -7.84889     1.96222
   416   2    -3.92444    -7.84889     1.96222
   417   2     0.00000    -7.84889     1.96222
   418   2     3.92444    -7.84889     1.96222
   419   2     7.84889    -7.84889     1.96222
   420   1    11.77333    -7.84889     1.96222
   421   1   -11.77333    -3.92444     1.96222
   422   2    -7.84889    -3.92444     1.96222
   423   2    -3.92444    -3.92444     1.96222
   424   2     0.00000    -3.92444     1.96222
   425   2     3.92444    -3.92444     1.96222
   426   2     7.84889    -3.92444     1.96222
   427   1    11.77333    -3.92444     1.96222
   428   2   -11.77333     0.00000     1.96222
   429   2    -7.84889     0.00000     1.96222
   430   2    -3.92444     0.00000     1.96222
   431   2     0.00000     0.00000     1.96222
   432   2     3.92444     0.00000     1.96222
   433   2     7.84889     0.00000     1.96222
   434   2    11.77333     0.00000     1.96222
   435   1   -11.77333     3.92444     1.96222
   436   2    -7.84889     3.92444     1.96222
   437   2    -3.92444     3.92444     1.96222
   438   2     0.00000     3.92444     1.96222
   439   2     3.92444     3.92444     1.96222
   440   2     7.84889     3.92444     1.96222
   441   1    11.77333     3.92444     1.96222
   442   1   -11.77333     7.84889     1.96222
   443   2    -7.84889     7.84889     1.96222
   444   2    -3.92444     7.84889     1.96222
   445   2     0.00000     7.84889     1.96222
   446   2     3.92444     7.84889     1.96222
   447   2     7.84889     7.84889     1.96222
   448   1    11.77333     7.84889     1.96222
   449   1    -7.84889    11.77333     1.96222
   450   1    -3.92444    11.77333     1.96222
   451   2     0.00000    11.77333     1.96222
   452   1     3.92444    11.77333     1.96222
   453   1     7.84889    11.77333     1.96222
   454   1    -7.84889   -11.77333     5.88666
   455   1    -3.92444   -11.77333     5.88666
   456   1     0.00000   -11.77333     5.88666
   457   1     3.92444   -11.77333     5.88666
   458   1     7.84889   -11.77333     5.88666
   459   1   -11.77333    -7.84889     5.88666
   460   1    -7.84889    -7.84889     5.88666
   461   2    -3.92444    -7.84889     5.88666
   462   2     0.00000    -7.84889     5.88666
   463   2     3.92444    -7.84889     5.88666
   464   1     7.84889    -7.84889     5.88666
   465   1    11.77333    -7.84889     5.88666
   466   1   -11.77333    -3.92444     5.88666
   467   2    -7.84889    -3.92444     5.88666
   468   2    -3.92444    -3.92444     5.88666
   469   2     0.00000    -3.92444     5.88666
   470   2     3.92444    -3.92444     5.88666
   471   2     7.84889    -3.92444     5.88666
   472   1    11.77333    -3.92444     5.88666
   473   1   -11.77333     0.00000     5.88666
   474   2    -7.84889     0.00000     5.88666
   475   2    -3.92444     0.00000     5.88666
   476   2     0.00000     0.00000     5.88666
   477   2     3.92444     0.00000     5.88666
   478   2     7.84889     0.00000     5.88666
   479   1    11.77333     0.00000     5.88666
   480   1   -11.77333     3.92444     5.88666
   481   2    -7.84889     3.92444     5.88666
   482   2    -3.92444     3.92444     5.88666
   483   2     0.00000     3.92444     5.88666
   484   2     3.92444     3.92444     5.88666
   485   2     7.84889     3.92444     5.88666
   486   1    11.77333     3.92444     5.88666
   487   1   -11.77333     7.84889     5.88666
   488   1    -7.84889     7.84889     5.88666
   489   2    -3.92444     7.84889     5.88666
   490   2     0.00000     7.84889     5.88666
   491   2     3.92444     7.84889     5.88666
   492   1     7.84889     7.84889     5.88666
   493   1    11.77333     7.84889     5.88666
   494   1    -7.84889    11.77333     5.88666
   495   1    -3.92444    11.77333     5.88666
   496   1     0.00000    11.77333     5.88666
   497   1     3.92444    11.77333     5.88666
   498   1     7.84889    11.77333     5.88666
   499   1     0.00000   -11.77333     9.81111
   500   1    -7.84889    -7.84889     9.81111
   501   1    -3.92444    -7.84889     9.81111
   502   1     0.00000    -7.84889     9.81111
   503   1     3.92444    -7.84889     9.81111
   504   1     7.84889    -7.84889     9.81111
   505   1    -7.84889    -3.92444     9.81111
   506   2    -3.92444    -3.92444     9.81111
   507   2     0.00000    -3.92444     9.81111
   508   2     3.92444    -3.92444     9.81111
   509   1     7.84889    -3.92444     9.81111
   510   1   -11.77333     0.00000     9.81111
   511   1    -7.84889     0.00000     9.81111
   512   2    -3.92444     0.00000     9.81111
   513   2     0.00000     0.00000     9.81111
   514   2     3.92444     0.00000     9.81111
   515   1     7.84889     0.00000     9.81111
   516   1    11.77333     0.00000     9.81111
   517   1    -7.84889     3.92444     9.81111
   518   2    -3.92444     3.92444     9.81111
   519   2     0.00000     3.92444     9.81111
   520   2     3.92444     3.92444     9.81111
   521   1     7.84889     3.92444     9.81111
   522   1    -7.84889     7.84889     9.81111
   523   1    -3.92444     7.84889     9.81111
   524   1     0.00000     7.84889     9.81111
   525   1     3.92444     7.84889     9.81111
   526   1     7.84889     7.84889     9.81111
   527   1     0.00000    11.77333     9.81111
   528   1    -3.92444    -3.92444    13.73555
   529   1     0.00000    -3.92444    13.73555
   530   1     3.92444    -3.92444    13.73555
   531   1    -3.92444     0.00000    13.73555
   532   1     0.00000     0.00000    13.73555
   533   1     3.92444     0.00000    13.73555
   534   1    -3.92444     3.92444    13.73555
   535   1     0.00000     3.92444    13.73555
   536   1     3.92444     3.92444    13.73555
   537   1    -3.92444   -13.73555    -3.92444
   538   1     0.00000   -13.73555    -3.92444
   539   1     3.92444   -13.73555    -3.92444
   540   1    -3.92444   -13.73555     0.00000
   541   1     0.00000   -13.73555     0.00000
   542   1     3.92444   -13.73555     0.00000
   543   1    -3.92444   -13.73555     3.92444
   544   1     0.00000   -13.73555     3.92444
   545   1     3.92444   -13.73555     3.92444
   546   1     0.00000    -9.81111   -11.77333
   547   1    -7.84889    -9.81111    -7.84889
   548   1    -3.92444    -9.81111    -7.84889
   549   1     0.00000    -9.81111    -7.84889
   550   1     3.92444    -9.81111    -7.84889
   551   1     7.84889    -9.81111    -7.84889
   552   1    -7.84889    -9.81111    -3.92444
   553   2    -3.92444    -9.81111    -3.92444
   554   2     0.00000    -9.81111    -3.92444
   555   2     3.92444    -9.81111    -3.92444
   556   1     7.84889    -9.81111    -3.92444
   557   1   -11.77333    -9.81111     0.00000
   558   1    -7.84889    -9.81111     0.00000
   559   2    -3.92444    -9.81111     0.00000
   560   2     0.00000    -9.81111     0.00000
   561   2     3.92444    -9.81111     0.00000
   562   1     7.84889    -9.81111     0.00000
   563   1    11.77333    -9.81111     0.00000
   564   1    -7.84889    -9.81111     3.92444
   565   2    -3.92444    -9.81111     3.92444
   566   2     0.00000    -9.81111     3.92444
   567   2     3.92444    -9.81111     3.92444
   568   1     7.84889    -9.81111     3.92444
   569   1    -7.84889    -9.81111     7.84889
   570   1    -3.92444    -9.81111     7.84889
   571   1     0.00000    -9.81111     7.84889
   572   1     3.92444    -9.81111     7.84889
   573   1     7.84889    -9.81111     7.84889
   574   1     0.00000    -9.81111    11.77333
   575   1    -7.84889    -5.88666   -11.77333
   576   1    -3.92444    -5.88666   -11.77333
   577   1     0.00000    -5.88666   -11.77333
   578   1     3.92444    -5.88666   -11.77333
   579   1     7.84889    -5.88666   -11.77333
   580   1   -11.77333    -5.88666    -7.84889
   581   1    -7.84889    -5.88666    -7.84889
   582   2    -3.92444    -5.88666    -7.84889
   583   2     0.00000    -5.88666    -7.84889
   584   2     3.92444    -5.88666    -7.84889
   585   1     7.84889    -5.88666    -7.84889
   586   1    11.77333    -5.88666    -7.84889
   587   1   -11.77333    -5.88666    -3.92444
   588   2    -7.84889    -5.88666    -3.92444
   589   2    -3.92444    -5.88666    -3.92444
   590   2     0.00000    -5.88666    -3.92444
   591   2     3.92444    -5.88666    -3.92444
   592   2     7.84889    -5.88666    -3.92444
   593   1    11.77333    -5.88666    -3.92444
   594   1   -11.77333    -5.88666     0.00000
   595   2    -7.84889    -5.88666     0.00000
   596   2    -3.92444    -5.88666     0.00000
   597   2     0.00000    -5.88666     0.00000
   598   2     3.92444    -5.88666     0.00000
   599   2     7.84889    -5.88666     0.00000
   600   1    11.77333    -5.88666     0.00000
   601   1   -11.77333    -5.88666     3.92444
   602   2    -7.84889    -5.88666     3.92444
   603   2    -3.92444    -5.88666     3.92444
   604   2     0.00000    -5.88666     3.92444
   605   2     3.92444    -5.88666     3.92444
   606   2     7.84889    -5.88666     3.92444
   607   1    11.77333    -5.88666     3.92444
   608   1   -11.77333    -5.88666     7.84889
   609   1    -7.84889    -5.88666     7.84889
   610   2    -3.92444    -5.88666     7.84889
   611   2     0.00000    -5.88666     7.84889
   612   2     3.92444    -5.88666     7.84889
   613   1     7.84889    -5.88666     7.84889
   614   1    11.77333    -5.88666     7.84889
   615   1    -7.84889    -5.88666    11.77333
   616   1    -3.92444    -5.88666    11.77333
   617   1     0.00000    -5.88666    11.77333
   618   1     3.92444    -5.88666    11.77333
   619   1     7.84889    -5.88666    11.77333
   620   1    -7.84889    -1.96222   -11.77333
   621   1    -3.92444    -1.96222   -11.77333
   622   2     0.00000    -1.96222   -11.77333
   623   1     3.92444    -1.96222   -11.77333
   624   1     7.84889    -1.96222   -11.77333
   625   1   -11.77333    -1.96222    -7.84889
   626   2    -7.84889    -1.96222    -7.84889
   627   2    -3.92444    -1.96222    -7.84889
   628   2     0.00000    -1.96222    -7.84889
   629   2     3.92444    -1.96222    -7.84889
   630   2     7.84889    -1.96222    -7.84889
   631   1    11.77333    -1.96222    -7.84889
   632   1   -11.77333    -1.96222    -3.92444
   633   2    -7.84889    -1.96222    -3.92444
   634   2    -3.92444    -1.96222    -3.92444