4321
 Atoms. Timestep: 4193
2 0.284244 -7.14659 -22.7238
2 -3.53752 -3.70769 -22.816
2 -0.0330693 -3.37674 -22.9279
2 3.97577 -3.37447 -23.0757
1 -7.56908 -0.0934708 -22.7036
1 -3.71216 -0.0593827 -22.7261
2 0.0553231 0.324406 -23.4608
1 3.94953 0.112133 -22.6817
2 7.63736 -0.0566599 -22.569
2 -3.89224 3.87775 -22.8687
3 0.139432 3.81313 -22.8904
2 4.03421 3.93829 -22.9294
3 0.091799 7.7592 -22.6211
3 -7.59187 -11.2916 -18.848
2 -4.14181 -11.6285 -19.5503
2 -0.00190518 -11.5408 -19.3121
1 4.07887 -11.4912 -19.4785
1 7.98657 -11.4011 -19.0129
3 -11.3128 -7.6743 -18.8533
1 -7.64541 -7.51976 -19.1954
2 -3.80764 -7.41416 -19.0749
3 0.0791788 -7.67103 -19.1216
3 3.95335 -7.45792 -19.0473
3 7.7874 -7.32982 -18.9099
2 11.4683 -7.74995 -18.8384
2 -11.5809 -3.91735 -19.1789
2 -7.69571 -3.62821 -19.1999
2 -3.73762 -3.8058 -19.048
3 0.205119 -3.722 -18.9475
1 3.84025 -3.83345 -19.1108
2 7.88162 -3.73567 -19.1163
1 11.836 -3.87849 -19.3272
3 -11.5105 -0.00172556 -18.9537
1 -7.67384 0.0534208 -18.9967
2 -3.65577 0.093752 -19.0529
2 0.165281 0.149276 -18.9954
1 3.89154 0.220722 -19.0261
1 7.72095 0.0580688 -19.0729
2 11.6959 0.170284 -18.942
2 -11.5047 3.73138 -18.7352
3 -7.71473 3.73356 -19.0233
2 -3.70647 3.79208 -19.0654
1 0.159828 3.92148 -19.1311
1 3.93522 3.7731 -18.871
2 7.81799 3.90369 -18.997
1 11.7123 4.15035 -19.1224
1 -11.5377 7.44184 -19.0719
2 -7.74016 7.48215 -18.9367
3 -3.79318 7.6886 -19.0644
2 0.0080742 7.82556 -18.9558
1 3.8286 7.71103 -18.9167
2 7.63921 7.53376 -18.929
2 11.3441 7.88733 -18.7604
1 -7.69213 11.3536 -18.6577
2 -4.0395 11.6478 -19.1078
1 0.00238526 12.3822 -19.7163
2 3.99982 11.5506 -18.716
2 7.87656 11.6155 -18.6027
2 -7.94 -15.1956 -15.0807
2 -3.79152 -15.1854 -15.2652
1 -0.00411587 -14.9343 -15.5082
2 3.79035 -15.088 -15.4984
2 7.85075 -15.0269 -15.3446
3 -11.3431 -11.2684 -15.151
3 -7.60817 -11.302 -15.1229
2 -3.77043 -11.2583 -15.1868
2 -0.00527296 -11.2204 -15.0788
2 3.67078 -11.2831 -15.3067
2 7.54161 -11.3233 -15.2359
1 11.6167 -11.6214 -15.3524
3 -14.9148 -7.51154 -14.9717
1 -11.4104 -7.64809 -15.2261
2 -7.48033 -7.45425 -15.1346
1 -3.67603 -7.48687 -15.2901
2 0.0172826 -7.47962 -15.3899
2 3.88315 -7.4774 -15.2092
3 7.6221 -7.43475 -15.098
1 11.532 -7.50791 -15.0749
2 15.2043 -7.92226 -15.3082
2 -15.5513 -4.15893 -15.7166
2 -11.3564 -3.81695 -15.132
1 -7.53591 -3.7121 -15.2109
2 -3.56532 -3.75449 -15.313
1 -0.0241489 -3.77713 -15.2107
2 3.93022 -3.68229 -15.1812
1 7.62085 -3.63058 -15.2015
2 11.4867 -3.83459 -15.0523
1 15.4381 -4.03611 -15.3691
1 -15.3204 0.0106233 -15.148
3 -11.502 -0.140091 -15.1071
2 -7.45999 -0.0859125 -15.2269
2 -3.73607 0.0675208 -15.2819
2 0.00828959 -0.028581 -15.3121
3 3.90271 -0.011518 -15.1958
1 7.68087 0.0312455 -15.1963
1 11.4504 0.0374486 -15.1461
1 15.1093 -0.0110862 -15.0419
2 -15.3649 3.64249 -15.0996
3 -11.4176 3.74341 -15.1213
2 -7.57351 3.70331 -15.2681
1 -3.71204 3.7248 -15.1744
2 0.0208387 3.74622 -15.1103
2 3.78189 3.85526 -15.226
3 7.55668 3.65503 -15.0655
3 11.4655 3.70649 -15.0122
1 15.9197 4.04235 -15.6727
2 -15.2325 7.69202 -15.0402
2 -11.4479 7.57457 -15.2429
1 -7.53309 7.41588 -15.2234
1 -3.84444 7.54878 -15.0773
3 0.0475026 7.57087 -15.188
2 3.70898 7.63771 -15.2391
3 7.63267 7.54299 -15.0405
2 11.3397 7.55443 -14.9227
1 15.4698 8.22812 -15.2806
2 -11.4708 11.2932 -15.2603
1 -7.64765 11.3758 -15.2697
2 -3.95334 11.5599 -15.1803
3 -0.103285 11.4364 -15.1585
1 3.83172 11.4572 -15.1585
2 7.81226 11.3849 -15.1215
1 11.691 11.7739 -15.1894
2 -7.69518 15.2158 -15.2398
3 -3.91858 15.15 -15.1165
2 -0.15513 15.0966 -15.2521
3 3.7609 15.3016 -15.1855
2 7.9276 15.3929 -15.152
2 -7.89037 -18.6575 -11.5351
2 -3.89887 -19.5138 -11.8609
2 0.23942 -18.9542 -11.6618
2 3.97818 -20.2333 -13.5092
2 7.49057 -18.8713 -11.4344
1 -11.8041 -15.5118 -11.6622
2 -7.59893 -14.9953 -11.2722
1 -3.73214 -15.1585 -11.3584
2 -0.144093 -15.1739 -11.3134
2 3.6892 -15.2429 -11.3293
1 7.50931 -15.144 -11.2608
2 11.4391 -15.3474 -11.4329
1 -15.4846 -11.8539 -11.7919
1 -11.218 -11.3201 -11.411
1 -7.66773 -11.2736 -11.3484
2 -3.73716 -11.3496 -11.3975
3 -0.0575089 -11.2561 -11.2094
3 3.68482 -11.3006 -11.4544
2 7.50753 -11.5046 -11.3451
1 11.3011 -11.4691 -11.4511
3 15.0776 -11.5218 -11.388
1 -18.7981 -7.96691 -11.5185
1 -15.2468 -7.71413 -11.5053
2 -11.2989 -7.54143 -11.3932
2 -7.57904 -7.40786 -11.3549
2 -3.79478 -7.49762 -11.2642
2 0.0583503 -7.44553 -11.2774
1 3.8448 -7.40751 -11.3048
3 7.57572 -7.3913 -11.2718
1 11.4412 -7.53411 -11.3046
3 15.2545 -7.60413 -11.4382
1 18.931 -8.15873 -11.5227
2 -18.8969 -3.97356 -11.4744
3 -15.0286 -3.93303 -11.3077
3 -11.26 -3.84296 -11.3649
1 -7.57406 -3.69798 -11.4777
2 -3.70319 -3.74266 -11.2031
2 0.0153513 -3.73503 -11.2515
3 3.80161 -3.72854 -11.3774
3 7.51955 -3.69787 -11.2207
3 11.2754 -3.69751 -11.2734
2 14.992 -3.8679 -11.2833
2 19.1764 -4.08035 -11.5824
2 -18.9894 -0.197533 -11.3171
1 -15.2238 -0.172739 -11.3351
3 -11.3452 -0.0683095 -11.253
1 -7.49276 -0.00378908 -11.3348
3 -3.71809 0.0159704 -11.3318
1 0.000482758 -0.0774203 -11.4213
2 3.79951 -0.1362 -11.2814
1 7.62587 0.0236564 -11.3044
1 11.3365 -0.0595556 -11.2396
1 15.1658 -0.179889 -11.2046
1 19.2893 0.0165454 -11.5874
2 -19.0962 3.7198 -11.6114
3 -15.2363 3.63725 -11.3861
1 -11.2968 3.84987 -11.3837
2 -7.46594 3.62286 -11.3914
2 -3.82537 3.65633 -11.2577
1 -0.0526361 3.75244 -11.2785
2 3.82282 3.70736 -11.1073
2 7.68755 3.72044 -11.3642
1 11.4336 3.81126 -11.3319
2 15.3259 3.67977 -11.2202
3 18.9232 4.19195 -11.5406
1 -19.0428 7.66652 -11.4421
3 -15.216 7.54748 -11.3211
2 -11.4299 7.46269 -11.3862
2 -7.48005 7.43948 -11.2704
3 -3.90224 7.46601 -11.2691
1 0.0519154 7.58053 -11.2469
1 3.65995 7.6705 -11.2879
2 7.63556 7.5795 -11.4
2 11.3375 7.71356 -11.2686
1 15.157 7.48746 -11.2442
1 19.1011 8.12992 -11.6266
1 -15.176 11.3019 -11.5001
2 -11.4583 11.2231 -11.1979
2 -7.73093 11.2221 -11.3531
3 -3.80852 11.3027 -11.338
2 0.0102589 11.3622 -11.334
1 3.87814 11.4669 -11.3116
2 7.6614 11.326 -11.2822
1 11.3177 11.4371 -11.1825
1 15.1609 11.4551 -11.1621
3 -11.2464 15.1201 -11.4788
1 -7.82655 15.199 -11.4347
1 -3.80279 15.1679 -11.3777
1 -0.0936492 15.078 -11.3375
1 3.69551 15.2267 -11.3223
3 7.70802 15.3552 -11.5637
2 11.491 15.1963 -11.2155
2 -7.65827 18.7779 -11.5255
1 -3.96253 18.9104 -11.4233
1 -0.168392 19.1088 -11.6224
2 4.00935 19.0356 -11.6525
3 7.60562 19.1111 -11.4602
1 -1.25144 -21.7712 -8.10542
2 -11.3775 -18.8277 -7.82422
2 -7.37759 -19.0033 -7.71732
1 -3.8626 -19.1408 -7.58247
2 0.101929 -18.8497 -7.50811
2 3.84452 -18.9722 -7.44175
2 7.38586 -18.8677 -7.56662
3 11.1554 -18.9699 -7.57931
2 -15.2496 -15.44 -7.82314
3 -11.2688 -15.4954 -7.78046
3 -7.4393 -15.2068 -7.58014
1 -3.71168 -15.0524 -7.537
3 -0.132027 -15.1541 -7.58521
3 3.7744 -15.0425 -7.58277
1 7.34968 -15.0756 -7.6304
3 11.3412 -15.1405 -7.48091
1 15.0671 -15.1658 -7.88402
2 -18.6177 -11.4837 -7.66615
2 -15.1571 -11.5615 -7.63545
3 -11.2193 -11.4479 -7.42634
3 -7.47054 -11.3539 -7.58191
3 -3.67821 -11.2508 -7.51392
2 -0.0279605 -11.3422 -7.40645
1 3.62619 -11.2372 -7.55906
2 7.53067 -11.2777 -7.44617
1 11.4159 -11.4183 -7.54013
3 15.1261 -11.4931 -7.64262
3 18.8707 -11.4696 -7.68655
2 -18.8714 -7.9313 -7.57706
1 -15.0883 -7.65619 -7.82511
3 -11.3059 -7.61039 -7.54142
2 -7.52572 -7.59038 -7.44617
1 -3.79752 -7.33781 -7.5065
3 0.020555 -7.34697 -7.49279
1 3.66112 -7.52618 -7.47514
1 7.44115 -7.62652 -7.45627
3 11.2668 -7.57878 -7.5674
2 15.164 -7.71392 -7.48596
2 19.0399 -7.94187 -7.58853
1 -19.0761 -4.04199 -7.66764
2 -15.3376 -3.80271 -7.6646
2 -11.2166 -3.80616 -7.49039
2 -7.56121 -3.82251 -7.46749
1 -3.71644 -3.69648 -7.46792
2 0.083368 -3.69455 -7.60818
3 3.66378 -3.80094 -7.4698
1 7.54427 -3.76273 -7.48196
3 11.2634 -3.8588 -7.4763
1 15.177 -3.95595 -7.44865
3 19.1087 -3.97158 -7.5432
1 -23.0944 -0.00236782 -7.79283
1 -19.2106 -0.0640727 -7.75418
1 -15.2953 -0.216135 -7.59716
2 -11.1984 -0.13247 -7.5975
3 -7.5378 -0.0848114 -7.47272
1 -3.73737 -0.0361417 -7.45659
3 -0.0240241 0.101613 -7.56583
2 3.75574 -0.0494504 -7.52505
1 7.50423 -0.0754599 -7.5426
1 11.306 -0.251189 -7.49187
1 15.2238 -0.103873 -7.54836
1 18.9617 -0.138695 -7.38583
1 22.7968 -0.00741154 -7.58482
2 -19.1199 3.73222 -7.5986
1 -15.1527 3.65941 -7.65568
3 -11.3266 3.8028 -7.5605
3 -7.57471 3.56848 -7.54867
2 -3.7352 3.68591 -7.61806
2 0.0788883 3.67468 -7.44434
3 3.75781 3.68338 -7.48951
3 7.57286 3.67375 -7.50167
3 11.3327 3.74476 -7.51028
2 15.2435 3.57162 -7.44862
2 19.0418 3.62002 -7.57938
3 -18.8129 7.48292 -7.58962
1 -15.235 7.47041 -7.83241
2 -11.2694 7.44365 -7.60856
3 -7.54649 7.49144 -7.52467
1 -3.84951 7.43978 -7.57311
3 0.0217571 7.5235 -7.4871
1 3.82468 7.4371 -7.36309
3 7.61999 7.43388 -7.44197
3 11.3815 7.61786 -7.51027
2 15.1424 7.64119 -7.43944
3 19.0045 7.55836 -7.64105
1 -18.8508 11.3361 -7.93913
2 -15.2145 11.0811 -7.61082
2 -11.3681 11.3287 -7.67862
3 -7.60163 11.3734 -7.53443
2 -3.78017 11.2835 -7.44464
3 0.0462702 11.3449 -7.46201
2 3.70508 11.3654 -7.59426
2 7.61355 11.4688 -7.6607
2 11.3531 11.3299 -7.58884
2 15.124 11.2402 -7.54258
3 18.8179 11.4167 -7.56131
2 -15.2879 15.3197 -8.27385
1 -11.6808 15.2882 -7.7455
2 -7.52957 15.0591 -7.45159
2 -3.92017 15.0989 -7.57191
2 -0.0463749 15.1211 -7.53221
2 3.81509 15.3382 -7.58035
1 7.65792 15.4037 -7.56399
2 11.3045 15.2832 -7.70182
3 15.135 15.1798 -7.54929
2 -11.3182 18.74 -7.72245
2 -7.86671 18.8366 -7.58256
2 -3.90181 19.0845 -7.53092
1 -0.132037 19.0685 -7.49704
3 3.69563 19.025 -7.66379
2 7.53381 18.9159 -7.34473
2 11.5477 18.8998 -7.57801
2 -0.000856694 22.8242 -7.63769
1 -3.33228 -22.7266 -3.71056
3 0.0200693 -22.6415 -3.80112
2 3.76267 -22.8468 -3.56296
3 -11.385 -18.7355 -3.59972
2 -7.66601 -18.9766 -3.81718
2 -3.71836 -19.0108 -3.72991
2 -0.0875959 -18.8006 -3.84087
2 3.74803 -18.9093 -3.72791
1 7.57165 -19.0103 -3.82051
2 11.5085 -19.3156 -4.03905
1 -15.2318 -15.3564 -3.71814
1 -11.2331 -15.0918 -3.77486
2 -7.39097 -15.0586 -3.75043
1 -3.80667 -15.0112 -3.94336
2 -0.11844 -15.1204 -3.76733
3 3.6819 -15.0251 -3.69334
2 7.42031 -15.0365 -3.75443
2 11.5019 -15.064 -3.59141
2 15.7179 -16.1911 -4.09255
2 -19.0682 -11.7695 -3.95093
1 -15.0605 -11.4391 -3.80522
1 -11.2642 -11.4087 -3.83663
2 -7.49825 -11.2614 -3.73262
3 -4.03303 -11.1763 -3.69502
3 -0.0272068 -11.2859 -3.72157
1 3.7186 -11.3179 -3.58001
2 7.5009 -11.3506 -3.65124
1 11.2329 -11.3185 -3.73678
2 15.0474 -11.461 -3.78537
1 19.4657 -12.0686 -4.14882
3 -18.9253 -7.73926 -3.7431
1 -15.2457 -7.57089 -3.73446
1 -11.3382 -7.56438 -3.77435
3 -7.53868 -7.61251 -3.731
3 -3.80269 -7.45687 -3.80617
2 0.0245939 -7.53736 -3.77274
2 3.66209 -7.4612 -3.5831
1 7.51289 -7.53501 -3.70189
2 11.2511 -7.58412 -3.73556
2 14.9626 -7.73047 -3.77145
1 19.1301 -7.84232 -3.78706
3 -22.5679 -3.93312 -4.21076
1 -19.3015 -3.84081 -3.80111
2 -15.171 -3.76289 -3.82335
2 -11.2923 -3.79109 -3.84083
3 -7.49144 -3.80636 -3.72615
1 -3.7951 -3.77289 -3.77722
3 -0.0658352 -3.65107 -3.7699
1 3.75265 -3.7324 -3.7834
2 7.52251 -3.95604 -3.71057
1 11.3071 -3.84453 -3.65703
2 15.2322 -3.9347 -3.67383
2 18.9348 -3.96779 -3.70567
2 22.826 -4.0625 -4.30746
2 -22.7213 0.0167839 -3.83351
3 -19.1156 0.0239299 -3.85758
2 -15.2272 -0.114198 -3.86187
3 -11.3305 -0.0129208 -3.85063
3 -7.56285 0.0282891 -3.79747
1 -3.85101 0.0680221 -3.68831
3 0.117175 0.0943275 -3.78862
3 3.68352 -0.0586869 -3.7484
3 7.54476 -0.059781 -3.75559
2 11.3241 -0.206027 -3.78412
2 15.1731 -0.232705 -3.58242
2 19.0256 -0.115078 -3.64921
2 22.785 -0.211657 -3.82961
2 -22.8006 3.75862 -3.93845
3 -19.0249 3.8046 -3.88397
3 -15.1372 3.65951 -3.84581
2 -11.3399 3.70332 -3.86938
3 -7.56889 3.76689 -3.73276
2 -3.7219 3.73289 -3.76844
2 -0.0258128 3.76357 -3.78306
3 3.76146 3.82642 -3.78846
2 7.45508 3.67682 -3.70694
1 11.2571 3.82256 -3.69242
2 15.1338 3.7752 -3.66541
3 18.9332 3.6869 -3.86848
2 22.6782 3.70519 -3.9338
3 -18.8807 7.4857 -3.89202
2 -15.0604 7.41817 -3.86009
2 -11.3984 7.40424 -3.81947
1 -7.61253 7.45009 -3.81501
1 -3.82985 7.383 -3.72967
1 0.0659135 7.43865 -3.66126
3 3.88239 7.39235 -3.84866
3 7.61368 7.54872 -3.68168
1 11.3115 7.56846 -3.7197
1 15.2299 7.6271 -3.73418
2 19.2383 7.65589 -3.75511
2 -19.243 11.7965 -4.37205
2 -15.0727 11.3047 -3.82548
1 -11.5196 11.1727 -3.75777
2 -7.61118 11.2533 -3.76203
2 -3.78912 11.394 -3.71534
2 -0.0621459 11.3102 -3.69926
1 3.72864 11.4114 -3.7624
2 7.52317 11.3529 -3.72447
3 11.4221 11.4458 -3.80734
3 15.2478 11.447 -3.82106
1 19.2797 11.7412 -4.08898
2 -15.6604 15.552 -4.26694
2 -11.3582 14.9449 -3.74103
3 -7.65112 15.1963 -3.71986
2 -3.85745 15.1621 -3.75884
2 -0.120298 15.2079 -3.69546
2 3.81722 15.2196 -3.72197
1 7.68684 15.2647 -3.67047
2 11.4092 15.1375 -3.74674
2 15.2498 15.3111 -3.72714
2 -11.6566 19.0092 -3.98212
1 -7.80106 18.9269 -3.82654
2 -3.82371 18.9797 -3.79762
2 -0.242647 19.099 -3.72418
1 3.71837 19.1484 -3.694
2 7.59096 19.1642 -3.7848
2 11.5693 19.042 -3.93256
2 -4.08483 22.726 -3.76349
2 -0.134004 23.0697 -3.74956
1 3.75769 22.7651 -3.9398
1 -6.59266 -23.0495 -0.163459
1 -3.88944 -22.6908 -0.044529
1 0.0178967 -23.0495 0.184781
1 3.6438 -22.9501 0.0327485
3 7.41993 -22.7477 0.0667885
2 -11.3453 -18.9287 0.0634
3 -7.51399 -18.8747 0.00896731
1 -3.75963 -18.8201 -0.0232589
2 -0.188645 -18.9579 -0.0252127
1 3.66105 -18.9848 0.024582
2 7.42676 -19.0993 0.108948
1 11.8218 -19.4063 0.0933899
3 -15.392 -15.0372 0.192003
3 -11.3502 -14.9958 -0.0194009
2 -7.36101 -14.9329 -0.019738
3 -3.73086 -15.0587 -0.00229433
2 -0.0902175 -15.0346 0.0291299
3 3.69113 -15.0877 0.0993311
2 7.34101 -15.1791 0.0951389
3 11.2213 -15.0536 0.0444896
1 15.0141 -15.4354 0.184184
2 -19.046 -11.3799 -0.0395839
2 -15.14 -11.4013 0.0584785
3 -11.2117 -11.3375 0.00107118
2 -7.49293 -11.2986 -0.0381761
3 -3.7844 -11.2461 0.162848
3 -0.0777788 -11.3297 -0.00439299
2 3.59523 -11.3515 0.064628
2 7.42175 -11.3845 -0.0255351
1 11.2062 -11.377 0.0121442
2 15.1374 -11.4358 0.149903
1 19.0622 -11.5054 0.263371
1 -22.8349 -7.71768 -0.0106421
2 -18.9309 -7.74849 0.000859473
2 -15.3125 -7.47234 -0.0343182
1 -11.2466 -7.55141 -0.00306879
3 -7.61877 -7.50701 -0.0573871
1 -3.8496 -7.58272 0.0363085
2 0.048167 -7.42798 0.039502
1 3.63867 -7.53882 -0.0176276
1 7.50698 -7.50866 0.0960348
2 11.2523 -7.78023 -0.0501324
2 15.1624 -7.87657 0.0429177
2 19.119 -8.0743 0.251715
1 22.9485 -7.40044 -0.20039
1 -22.7655 -3.77803 0.0859495
3 -19.1261 -3.7966 0.0162927
2 -15.1731 -3.64498 -0.00341533
3 -11.3514 -3.71153 0.0618332
1 -7.55047 -3.7711 -0.0110921
3 -3.73968 -3.81666 0.0625643
1 -0.0540548 -3.59717 0.227166
3 3.68761 -3.69172 -0.10374
3 7.50062 -3.7777 -0.0227518
3 11.2837 -3.83505 0.0385099
1 15.1304 -4.04147 0.126786
1 18.9797 -4.15377 0.126415
2 22.9748 -4.07452 0.157431
1 -23.0074 0.201026 0.129596
3 -19.1027 0.00243591 0.00996974
1 -15.1424 -0.00111223 -0.0801356
1 -11.4733 -0.0517999 -0.100039
3 -7.5097 0.0193253 0.079599
3 -3.59911 0.117854 -0.0695487
3 -0.0337956 0.0841625 -0.0118333
3 3.66477 0.067515 0.177846
2 7.62743 -0.00107267 -0.0245585
3 11.3784 -0.083604 -0.0971632
1 15.1521 -0.128526 -0.00610716
1 19.2656 -0.161134 -0.0202379
3 22.8371 0.194331 0.141662
3 -22.5714 3.81953 -0.116002
2 -18.9594 3.7529 -0.0709864
3 -15.1684 3.60961 -0.171749
1 -11.3774 3.72284 -0.132358
2 -7.56864 3.76224 -0.0720806
3 -3.6589 3.768 -0.131975
3 0.0621928 3.91496 0.0434224
2 3.80792 3.72604 -0.121481
1 7.65242 3.76381 -0.0161915
3 11.2294 3.71512 -0.0712982
2 15.1841 3.66261 0.0310706
3 19.0152 3.62924 -0.083441
2 22.8104 3.53905 -0.204344
2 -22.6756 7.62686 -0.182685
2 -18.7496 7.39046 -0.133621
3 -15.1141 7.52042 -0.146377
3 -11.2575 7.50493 -0.0919817
3 -7.38965 7.40865 -0.00761708
3 -3.63118 7.49537 0.0712294
2 0.0540773 7.3973 -0.0484458
3 3.74771 7.604 -0.0179688
1 7.5515 7.62555 0.0631866
2 11.341 7.65257 0.0238234
3 15.2945 7.55848 -0.00705461
1 19.2566 7.43693 0.000661304
1 21.8866 7.61999 -0.941078
1 -18.9578 11.3015 -0.178606
3 -15.0113 11.4099 -0.0844986
2 -11.2856 11.274 -0.0934202
2 -7.59268 11.2834 -0.0568332
2 -3.71496 11.2641 -0.0641857
2 0.066143 11.3694 0.177082
3 3.94621 11.3511 0.0814612
2 7.69725 11.3619 0.037486
3 11.3214 11.304 -0.0485855
2 15.2222 11.451 0.0844095
2 19.08 11.5583 -0.120906
3 -15.1637 15.0766 -0.204701
1 -11.3069 15.0906 -0.0800406
2 -7.6162 15.1352 0.0319865
1 -3.90913 15.2047 0.0405081
1 -0.099396 15.2708 -0.0294651
2 3.81334 15.2517 0.184032
1 7.57632 15.1675 0.0237681
2 11.5202 15.0574 0.0399042
3 15.1234 15.2244 -0.0414219
2 -11.6584 19.1106 0.0667893
2 -7.85039 18.9502 0.066961
2 -3.89006 18.9924 0.066588
3 -0.0132694 18.9578 0.123081
2 3.67618 19.1005 0.0709137
2 7.45012 19.0674 0.131311
1 11.8351 19.2756 0.0538919
2 -7.63385 22.7003 0.0806833
1 -3.68954 23.048 -0.0438294
3 -0.0477503 22.8159 -0.00645784
2 3.60476 22.7973 -0.00649042
1 7.39933 22.6522 -0.338121
3 -3.64956 -22.6977 3.84042
2 0.0882461 -22.9788 3.71638
1 3.64113 -22.829 3.81544
2 -11.6066 -19.0209 4.00637
1 -7.45706 -19.0844 3.91289
1 -3.78674 -19.0328 3.82498
1 -0.0942918 -19.0327 3.91095
3 3.70126 -19.1223 3.83677
1 7.41692 -18.7839 3.87352
2 11.8055 -19.8409 4.61969
1 -15.4525 -15.7036 4.00038
1 -11.3694 -15.213 3.79635
1 -7.52467 -15.0481 3.95
2 -3.84718 -15.1325 3.99924
3 -0.043357 -15.2278 3.7938
1 3.65035 -15.1926 3.77537
3 7.3897 -15.0769 3.7577
1 11.2705 -15.3348 3.75058
2 15.2717 -15.6748 4.13762
2 -20.1228 -12.0573 4.52662
3 -15.0706 -11.427 3.84538
1 -11.3537 -11.4255 3.86837
2 -7.62234 -11.3126 3.90368
2 -3.71631 -11.2307 3.95152
3 -0.0372683 -11.3599 3.73106
3 3.64925 -11.2703 3.76495
2 7.36064 -11.2298 3.75502
2 11.2136 -11.4082 3.73196
3 14.9576 -11.5217 3.83701
2 18.9446 -11.632 4.12697
3 -19.1562 -7.77194 3.87016
1 -15.2323 -7.4361 3.82573
2 -11.4749 -7.45812 3.72435
3 -7.54056 -7.56601 3.88206
2 -3.77927 -7.49018 3.77971
3 -0.0314673 -7.49752 3.68714
2 3.61305 -7.31805 3.78942
1 7.45422 -7.47847 3.68568
3 11.2168 -7.52831 3.67486
2 15.1038 -7.73859 3.86368
1 19.0034 -7.81679 3.80802
1 -22.7142 -3.8983 3.781
1 -19.2444 -3.84773 3.91882
1 -15.2321 -3.77974 3.816
2 -11.3238 -3.77673 3.83574
3 -7.61638 -3.76281 3.79623
3 -3.76895 -3.66617 3.64484
3 0.0490956 -3.62943 3.77993
2 3.73503 -3.80929 3.79023
2 7.61998 -3.80473 3.74585
1 11.3978 -3.79083 3.75129
3 15.1284 -3.99321 3.80047
2 18.9349 -3.84322 3.84128
1 22.8693 -4.15428 3.77542
1 -23.0804 0.0307655 3.73781
1 -18.9489 0.0838987 3.76209
1 -15.1983 -0.0288681 3.76423
3 -11.4528 -0.0102119 3.73453
2 -7.49023 0.0215616 3.86544
2 -3.53565 0.0100452 3.7178
3 0.199776 0.0889575 3.76964
3 3.66694 -0.0104169 3.67737
3 7.5688 -0.0798119 3.70767
3 11.2566 -0.0105019 3.74157
1 15.2433 -0.153818 3.8179
1 19.015 -0.139394 3.8319
2 22.8218 -0.12552 3.778
3 -22.6995 3.6862 3.68547
1 -18.884 3.80677 3.645
2 -15.1786 3.86104 3.65771
3 -11.3531 3.77341 3.75687
2 -7.54007 3.78735 3.7611
3 -3.56261 3.62943 3.76441
3 0.0288803 3.6088 3.76866
3 3.84375 3.60585 3.61678
2 7.48181 3.76312 3.64492
3 11.2767 3.64776 3.66993
1 15.1785 3.73628 3.7756
2 19.1531 3.72179 3.85861
2 22.5611 3.54326 4.14115
3 -19.1075 7.6786 3.54568
1 -15.206 7.38723 3.63546
1 -11.3453 7.43457 3.71097
3 -7.52324 7.48887 3.76612
2 -3.57955 7.47597 3.74909
3 0.137992 7.45582 3.81643
3 3.6662 7.54794 3.77853
3 7.56992 7.59331 3.67619
1 11.4048 7.55728 3.82596
2 15.2376 7.63846 3.79431
1 19.268 7.62073 3.59741
2 -18.8953 11.3529 3.61078
3 -15.182 11.3319 3.50072
1 -11.3312 11.2724 3.62203
1 -7.48499 11.316 3.76183
3 -3.83296 11.2452 3.68898
1 0.146752 11.3319 3.80813
3 3.74028 11.4133 3.81777
1 7.57492 11.4167 3.75283
3 11.4393 11.3284 3.8555
2 15.3026 11.5818 3.64601
2 18.968 11.426 3.79886
3 -15.3629 15.1939 3.75907
3 -11.4922 15.1987 3.66541
1 -7.57765 15.1217 3.93452
2 -3.81323 15.0607 3.72565
3 -0.171736 15.164 3.81771
1 3.71267 15.3432 3.73701
3 7.49725 15.1983 3.84363
2 11.3437 15.2627 3.67445
2 15.2471 15.4924 3.88837
1 -11.8041 18.972 3.89288
3 -7.69926 19.1208 3.71419
3 -3.88109 19.0822 3.97317
1 -0.0719707 19.0771 3.83391
2 3.7176 18.9808 3.91266
2 7.61447 19.0566 3.85672
2 11.6249 19.2562 4.01124
2 -4.01158 22.8006 3.8349
2 -0.189708 22.7855 3.83289
1 3.71476 22.7342 4.00476
2 0.0155953 -22.9469 7.74797
2 -11.3805 -19.176 8.01175
2 -7.51178 -19.014 7.7844
3 -3.7278 -19.0097 7.78817
1 0.009545 -18.8445 7.58941
2 3.80785 -18.9987 7.73426
2 7.51186 -18.9964 7.68864
2 12.4078 -19.277 9.37737
2 -14.9799 -15.2349 7.88557
2 -11.453 -15.2286 7.6323
2 -7.46396 -15.2978 7.60031
2 -3.76567 -15.0135 7.54863
1 0.0894387 -15.1896 7.55358
2 3.70321 -15.011 7.56143
3 7.42509 -15.0923 7.59758
1 11.5095 -15.3871 7.55077
1 15.2527 -15.3054 8.33907
2 -18.9809 -11.6595 8.06766
1 -15.1802 -11.5076 7.72566
3 -11.3757 -11.3707 7.63698
3 -7.51965 -11.2653 7.56704
3 -3.74545 -11.35 7.63859
2 0.0206898 -11.2166 7.52223
3 3.71294 -11.2124 7.51501
1 7.43825 -11.1784 7.51838
2 11.1285 -11.411 7.78395
1 14.9452 -11.4614 7.7309
1 18.8211 -11.577 7.76953
3 -19.1496 -7.57198 7.70739
2 -15.2132 -7.54691 7.49544
3 -11.3752 -7.52246 7.43906
1 -7.58364 -7.60992 7.59123
3 -3.74837 -7.54356 7.62638
3 0.117705 -7.40105 7.52899
2 3.6846 -7.52001 7.55437
2 7.47113 -7.56802 7.4115
2 11.3239 -7.54628 7.40524
2 15.0491 -7.56754 7.56989
1 18.9138 -7.69219 7.64157
2 -19.2578 -3.78604 7.73534
1 -15.164 -3.66246 7.58755
2 -11.4402 -3.75717 7.65177
2 -7.35506 -3.665 7.5427
3 -3.66818 -3.55656 7.57921
2 -0.0890182 -3.70946 7.42322
3 3.69039 -3.67124 7.59218
1 7.59337 -3.78166 7.41904
2 11.4632 -3.80518 7.52932
2 15.0766 -3.81386 7.51442
3 18.9871 -3.93696 7.55008
1 -22.7637 -0.269889 7.34801
2 -19.1169 -0.0277763 7.76528
1 -15.1551 -0.016192 7.56987
2 -11.3989 0.074071 7.51492
1 -7.51368 0.0911715 7.46849
3 -3.64909 0.0752532 7.50981
3 -0.0477074 0.0811711 7.53377
3 3.7069 -0.0544001 7.50037
1 7.50123 -0.0524018 7.43609
2 11.3759 0.00795908 7.52129
3 15.0525 0.0230327 7.52249
2 19.0513 -0.0418362 7.63701
1 22.8209 -0.492961 7.49572
2 -19.1328 3.79001 7.4772
1 -15.1031 3.93353 7.50825
2 -11.446 3.9797 7.63776
1 -7.64664 3.81456 7.52285
1 -3.70258 3.72935 7.54923
3 -0.00115816 3.68535 7.5043
3 3.7511 3.76992 7.49299
2 7.50466 3.80585 7.53723
3 11.3855 3.86291 7.46215
2 15.0842 3.79448 7.48851
2 18.8786 3.56502 7.62962
2 -18.984 7.55233 7.43573
2 -15.1224 7.53668 7.60257
2 -11.4574 7.49959 7.51255
2 -7.56615 7.47378 7.59047
1 -3.65051 7.5567 7.57522
1 0.0284225 7.53375 7.60115
3 3.65936 7.56286 7.55933
3 7.61552 7.51899 7.56559
2 11.3561 7.55564 7.49494
3 15.2683 7.62492 7.55307
2 18.8599 7.4752 7.55429
3 -18.7822 11.1405 7.47999
1 -15.3661 11.3769 7.45886
2 -11.5474 11.3728 7.50951
1 -7.51893 11.4481 7.60915
1 -3.68928 11.3211 7.47801
2 0.102111 11.3187 7.52885
3 3.78889 11.3235 7.47256
1 7.54697 11.4047 7.49664
3 11.4781 11.4746 7.55051
2 15.1916 11.2668 7.51709
1 18.5389 11.5386 7.85908
1 -15.5753 15.3802 8.01105
1 -11.5388 15.2249 7.83955
1 -7.63559 15.3137 7.54737
1 -3.80533 15.2207 7.80516
1 -0.0818673 15.2438 7.63302
3 3.90059 15.2166 7.53353
1 7.65279 15.257 7.50523
1 11.4615 15.1974 7.51737
2 15.2952 15.4087 8.09703
2 -11.6409 18.9728 7.76069
2 -7.72835 18.923 7.86522
2 -3.95854 19.1214 7.74987
2 0.0328423 19.1926 7.7455
2 3.75582 19.1554 7.66282
3 7.64184 19.1237 7.63145
2 11.4297 19.1033 8.09316
3 0.147708 22.5779 7.68031
2 -7.64813 -18.8969 11.532
2 -3.83526 -19.0894 11.5657
2 0.129837 -19.1333 11.3113
1 3.94055 -19.1233 11.8128
2 7.819 -18.892 11.4545
3 -11.1708 -15.1472 11.3498
2 -7.43512 -15.1223 11.3425
3 -3.79947 -15.0187 11.3588
2 -0.0888098 -15.1051 11.3304
1 3.70794 -14.975 11.4709
1 7.68911 -15.2523 11.4324
3 11.1555 -14.9697 11.5186
2 -15.4059 -11.8219 11.7547
1 -11.4392 -11.4362 11.4154
2 -7.39236 -11.2989 11.3571
2 -3.62404 -11.2753 11.3357
3 0.0414354 -11.2333 11.3662
3 3.79637 -11.2844 11.3767
2 7.43619 -11.3054 11.4482
3 11.2215 -11.2636 11.5137
2 15.0317 -11.441 11.5411
2 -18.5815 -8.0733 11.4886
2 -15.1886 -7.53159 11.345
3 -11.3833 -7.6006 11.2401
1 -7.50008 -7.48634 11.3711
2 -3.79681 -7.48158 11.3938
3 -0.0353543 -7.44692 11.285
2 3.70696 -7.48899 11.1963
2 7.45405 -7.44223 11.4216
3 11.1848 -7.6052 11.3453
2 15.0845 -7.64299 11.4355
3 18.7804 -7.77175 11.348
2 -18.8956 -3.92414 11.7466
2 -15.1708 -3.66228 11.3501
2 -11.41 -3.64645 11.3015
2 -7.4118 -3.7555 11.3861
3 -3.73592 -3.6986 11.3809
3 -0.01613 -3.66587 11.3408
1 3.66893 -3.83134 11.4477
2 7.61559 -3.77891 11.225
1 11.3007 -3.69603 11.2282
1 15.2345 -3.84113 11.5918
2 18.8286 -3.78196 11.8519
1 -19.1382 -0.0193521 11.5292
3 -15.3239 0.0994819 11.3804
1 -11.5783 0.129152 11.3977
2 -7.57571 0.0902799 11.3507
3 -3.74649 0.0696529 11.3057
2 -0.0511057 -0.0109287 11.3179
2 3.84146 0.0487016 11.3278
3 7.56235 -0.0371334 11.2524
2 11.3306 -0.0307103 11.3198
2 15.2122 0.0215797 11.3095
3 18.9601 -0.127059 11.234
3 -19.1571 3.78927 11.5413
2 -15.2822 3.77423 11.4476
3 -11.6155 3.7435 11.4584
3 -7.68446 3.89372 11.3095
2 -3.82926 3.82881 11.2718
3 -0.0597372 3.73661 11.3285
3 3.78104 3.68004 11.2561
2 7.60719 3.72059 11.3136
2 11.4571 3.75928 11.3381
2 15.084 3.77539 11.2686
2 19.2274 3.61389 11.6899
2 -19.2072 7.634 11.437
2 -15.1897 7.56148 11.3101
2 -11.3948 7.57462 11.323
2 -7.58955 7.5837 11.416
3 -3.81888 7.50145 11.4067
3 0.0347044 7.51543 11.273
2 3.89628 7.49627 11.3519
2 7.65851 7.57165 11.1524
3 11.3753 7.45782 11.1119
2 15.0564 7.62709 11.1631
2 18.8809 7.99175 11.3668
3 -15.3778 11.3549 11.3681
1 -11.5353 11.4043 11.5253
1 -7.52938 11.4047 11.605
2 -3.81043 11.2675 11.3319
2 -0.0504981 11.3028 11.2826
1 3.80361 11.3246 11.3494
3 7.6324 11.3742 11.3544
2 11.3125 11.3008 11.1058
3 15.0333 11.3499 11.3253
3 -11.6228 15.3362 11.5075
1 -7.77866 15.344 11.6445
3 -3.86512 15.1874 11.3953
2 0.0335769 15.2912 11.4941
2 3.89632 15.2241 11.3643
2 7.512 15.1722 11.3707
3 11.3936 14.9919 11.4057
2 -7.99801 18.8063 11.5557
2 -3.96749 19.1914 11.7288
2 0.0903524 18.9769 11.5458
2 3.86027 19.1123 11.4601
2 7.66563 18.8702 11.4838
2 -7.70201 -15.2286 15.2188
1 -3.83338 -15.5867 15.5913
1 -0.048773 -15.067 15.1974
3 3.82568 -15.1912 15.1621
2 7.69397 -15.0831 15.3221
2 -11.2273 -11.5809 15.0947
1 -7.49289 -11.3876 15.0663
2 -3.8078 -11.3248 15.1711
2 0.0885617 -11.3463 15.2441
2 3.82613 -11.3204 15.3052
1 7.44292 -11.3751 15.3108
1 11.4903 -11.498 15.596
1 -15.288 -8.23857 15.4146
3 -11.4431 -7.68009 15.1401
2 -7.55155 -7.51884 15.2397
3 -3.86965 -7.49063 15.2812
2 0.014447 -7.60445 15.3078
1 3.67985 -7.61952 15.2041
2 7.42571 -7.47296 15.1772
1 11.3671 -7.48329 15.2062
1 15.2764 -8.04134 15.4156
2 -15.3371 -3.86967 15.157
1 -11.4073 -3.91853 15.1263
1 -7.56963 -3.69267 15.2373
1 -3.76079 -3.6522 15.1663
2 0.0188225 -3.75833 15.1529
3 3.81132 -3.7977 15.2554
1 7.68837 -3.8717 15.1557
2 11.302 -3.78268 15.232
3 15.2733 -3.96267 15.1862
2 -15.1938 -0.102338 15.0793
2 -11.6166 0.166941 15.1559
1 -7.6738 0.0762817 15.3218
1 -3.73795 0.085967 15.2729
3 -0.100887 0.0570558 15.0757
2 3.66115 -0.0279702 15.0215
3 7.53834 -0.0874321 15.0694
2 11.4148 -0.112118 15.0722
3 15.2115 0.168941 15.1379
1 -15.4364 3.91045 15.2413
3 -11.4892 3.9904 15.0681
2 -7.73438 3.97104 15.222
2 -3.72832 3.92351 15.1665
3 0.154291 3.81404 15.0339
3 3.79291 3.78256 15.1552
3 7.66271 3.687 14.944
2 11.4993 3.85376 15.0721
2 15.3143 3.94448 15.146
2 -15.1775 7.66225 14.9097
1 -11.543 7.58008 15.2221
2 -7.60938 7.46041 15.2483
2 -3.74603 7.66089 15.1682
3 0.0848363 7.5378 15.0465
3 3.88958 7.48469 15.0118
1 7.68493 7.52274 14.9315
2 11.402 7.52753 14.91
1 15.0538 7.68094 15.0281
1 -11.816 11.7681 15.5337
2 -7.50807 11.3878 15.1938
3 -3.67914 11.2553 15.1269
1 0.0407082 11.3536 15.0976
1 3.91894 11.1206 14.9536
2 7.68453 11.2559 15.1132
3 11.3246 11.2069 14.9249
1 -8.24689 15.2869 15.4644
2 -3.80635 15.1528 15.2747
3 0.0391699 15.0912 15.2396
2 3.99525 15.0748 15.247
1 8.03344 15.0294 15.3026
2 -7.79601 -11.3091 18.9183
2 -4.06642 -11.6719 19.203
2 0.431224 -11.5999 19.4668
2 3.79973 -11.3884 18.9246
2 7.56972 -11.2672 18.8915
2 -11.408 -7.72815 18.8994
3 -7.46929 -7.41563 18.9106
2 -3.92672 -7.52288 19.1875
2 -0.0202916 -7.3584 19.0883
1 3.69081 -7.44309 18.8657
2 7.71768 -7.58521 18.839
2 11.4477 -7.59193 19.0036
2 -11.5429 -4.05278 19.1641
2 -7.59947 -3.7459 19.0667
3 -3.84714 -3.657 19.0588
1 0.010656 -3.64995 18.9616
3 3.80348 -3.84265 19.0828
1 7.66642 -3.82919 19.0965
3 11.7722 -3.9007 19.0369
2 -11.7897 -0.105795 19.1565
2 -7.77611 0.256706 18.9551
2 -3.89901 0.231471 19.1421
2 0.204387 0.0594201 18.7875
2 3.70027 0.00792361 18.9909
3 7.68445 -0.0148092 18.9128
1 11.6923 -0.0826814 19.0134
2 -11.5885 3.87503 18.9418
2 -7.7902 3.95193 19.0208
1 -3.84669 3.88492 18.8859
3 0.0325354 3.80394 18.7882
3 3.80289 3.7623 18.859
3 7.65263 3.71153 18.9341
1 11.5722 3.97492 18.7905
2 -11.4083 7.72534 18.8298
2 -7.57632 7.47578 18.9029
2 -3.94143 7.63884 18.8093
2 0.0216447 7.52823 18.8177
2 3.83845 7.56593 18.8998
1 7.59716 7.51992 18.7123
1 11.4493 7.58824 18.7777
2 -7.91529 11.3376 18.7897
2 -3.55874 11.4656 18.9398
3 0.089925 11.1941 18.8412
1 3.93508 11.5414 19.1172
2 8.33299 11.7382 19.1576
3 -0.126348 -7.32247 22.704
2 -3.76265 -3.6965 22.7931
1 -0.0557833 -3.50162 22.6139
3 3.86176 -3.71969 22.9228
2 -7.48368 -0.118054 22.8383
2 -3.66829 0.322301 23.6479
3 -0.0193909 0.186922 22.7108
1 3.76589 0.140971 22.6206
1 7.63429 0.0625346 22.6249
2 -4.08088 3.81397 22.9498
2 0.0293276 3.84944 22.814
2 3.7672 3.97864 22.8208
1 0.182079 7.28624 22.4826
2 -5.57401 -5.46455 -22.7915
1 -1.81784 -5.44993 -22.7362
1 1.99137 -5.37518 -22.9563
1 5.65678 -5.41636 -22.5878
3 -5.51687 -1.74736 -22.7819
1 -1.84657 -1.75889 -23.1603
2 1.874 -1.3465 -22.914
1 5.90217 -1.84371 -22.6771
2 -5.58082 1.69464 -22.7889
1 -1.83573 1.87272 -22.9197
2 1.99005 1.94013 -22.79
2 5.81315 1.91346 -22.6751
2 -5.61019 5.84953 -22.6713
2 -1.71347 5.92383 -22.8132
2 1.99348 5.92234 -22.8118
1 5.79802 5.7318 -22.5097
1 -5.89259 -13.3782 -18.8267
2 -1.99599 -13.3499 -19.2584
2 2.08854 -13.0659 -19.0119
1 6.02999 -12.9978 -18.7526
3 -9.44556 -9.37551 -18.8921
2 -5.83081 -9.49842 -19.1735
1 -1.87075 -9.55274 -19.1085
1 2.08424 -9.5393 -19.0674
3 5.85464 -9.26405 -19.0144
1 9.88944 -9.71582 -19.0315
3 -13.4466 -5.83286 -18.8617
2 -9.54648 -5.82681 -19.3272
1 -5.81913 -5.5736 -19.0326
3 -1.80532 -5.75906 -19.074
3 1.95909 -5.61295 -19.0793
2 5.86564 -5.66096 -19.0506