LAMMPS DATA FOR MEAM SIMULATION

   4321   atoms
      3   atom types

  -33.55   33.55   xlo xhi
  -33.55   33.55   ylo yhi
  -33.55   33.55   zlo zhi

 Atoms

     1   3     0.00000    -7.84889   -23.54666
     2   2    -3.92444    -3.92444   -23.54666
     3   3     0.00000    -3.92444   -23.54666
     4   3     3.92444    -3.92444   -23.54666
     5   1    -7.84889     0.00000   -23.54666
     6   1    -3.92444     0.00000   -23.54666
     7   3     0.00000     0.00000   -23.54666
     8   2     3.92444     0.00000   -23.54666
     9   1     7.84889     0.00000   -23.54666
    10   1    -3.92444     3.92444   -23.54666
    11   3     0.00000     3.92444   -23.54666
    12   2     3.92444     3.92444   -23.54666
    13   3     0.00000     7.84889   -23.54666
    14   1    -7.84889   -11.77333   -19.62221
    15   3    -3.92444   -11.77333   -19.62221
    16   1     0.00000   -11.77333   -19.62221
    17   2     3.92444   -11.77333   -19.62221
    18   2     7.84889   -11.77333   -19.62221
    19   1   -11.77333    -7.84889   -19.62221
    20   2    -7.84889    -7.84889   -19.62221
    21   2    -3.92444    -7.84889   -19.62221
    22   2     0.00000    -7.84889   -19.62221
    23   1     3.92444    -7.84889   -19.62221
    24   2     7.84889    -7.84889   -19.62221
    25   3    11.77333    -7.84889   -19.62221
    26   2   -11.77333    -3.92444   -19.62221
    27   1    -7.84889    -3.92444   -19.62221
    28   1    -3.92444    -3.92444   -19.62221
    29   1     0.00000    -3.92444   -19.62221
    30   2     3.92444    -3.92444   -19.62221
    31   2     7.84889    -3.92444   -19.62221
    32   1    11.77333    -3.92444   -19.62221
    33   3   -11.77333     0.00000   -19.62221
    34   1    -7.84889     0.00000   -19.62221
    35   1    -3.92444     0.00000   -19.62221
    36   2     0.00000     0.00000   -19.62221
    37   2     3.92444     0.00000   -19.62221
    38   2     7.84889     0.00000   -19.62221
    39   2    11.77333     0.00000   -19.62221
    40   3   -11.77333     3.92444   -19.62221
    41   2    -7.84889     3.92444   -19.62221
    42   1    -3.92444     3.92444   -19.62221
    43   3     0.00000     3.92444   -19.62221
    44   1     3.92444     3.92444   -19.62221
    45   2     7.84889     3.92444   -19.62221
    46   1    11.77333     3.92444   -19.62221
    47   3   -11.77333     7.84889   -19.62221
    48   1    -7.84889     7.84889   -19.62221
    49   1    -3.92444     7.84889   -19.62221
    50   3     0.00000     7.84889   -19.62221
    51   2     3.92444     7.84889   -19.62221
    52   3     7.84889     7.84889   -19.62221
    53   2    11.77333     7.84889   -19.62221
    54   2    -7.84889    11.77333   -19.62221
    55   2    -3.92444    11.77333   -19.62221
    56   3     0.00000    11.77333   -19.62221
    57   2     3.92444    11.77333   -19.62221
    58   2     7.84889    11.77333   -19.62221
    59   1    -7.84889   -15.69777   -15.69777
    60   3    -3.92444   -15.69777   -15.69777
    61   2     0.00000   -15.69777   -15.69777
    62   3     3.92444   -15.69777   -15.69777
    63   3     7.84889   -15.69777   -15.69777
    64   1   -11.77333   -11.77333   -15.69777
    65   2    -7.84889   -11.77333   -15.69777
    66   1    -3.92444   -11.77333   -15.69777
    67   2     0.00000   -11.77333   -15.69777
    68   3     3.92444   -11.77333   -15.69777
    69   1     7.84889   -11.77333   -15.69777
    70   2    11.77333   -11.77333   -15.69777
    71   1   -15.69777    -7.84889   -15.69777
    72   2   -11.77333    -7.84889   -15.69777
    73   2    -7.84889    -7.84889   -15.69777
    74   2    -3.92444    -7.84889   -15.69777
    75   2     0.00000    -7.84889   -15.69777
    76   2     3.92444    -7.84889   -15.69777
    77   3     7.84889    -7.84889   -15.69777
    78   3    11.77333    -7.84889   -15.69777
    79   2    15.69777    -7.84889   -15.69777
    80   1   -15.69777    -3.92444   -15.69777
    81   2   -11.77333    -3.92444   -15.69777
    82   1    -7.84889    -3.92444   -15.69777
    83   2    -3.92444    -3.92444   -15.69777
    84   2     0.00000    -3.92444   -15.69777
    85   2     3.92444    -3.92444   -15.69777
    86   2     7.84889    -3.92444   -15.69777
    87   2    11.77333    -3.92444   -15.69777
    88   2    15.69777    -3.92444   -15.69777
    89   2   -15.69777     0.00000   -15.69777
    90   2   -11.77333     0.00000   -15.69777
    91   2    -7.84889     0.00000   -15.69777
    92   2    -3.92444     0.00000   -15.69777
    93   1     0.00000     0.00000   -15.69777
    94   1     3.92444     0.00000   -15.69777
    95   3     7.84889     0.00000   -15.69777
    96   1    11.77333     0.00000   -15.69777
    97   2    15.69777     0.00000   -15.69777
    98   3   -15.69777     3.92444   -15.69777
    99   3   -11.77333     3.92444   -15.69777
   100   3    -7.84889     3.92444   -15.69777
   101   2    -3.92444     3.92444   -15.69777
   102   3     0.00000     3.92444   -15.69777
   103   2     3.92444     3.92444   -15.69777
   104   1     7.84889     3.92444   -15.69777
   105   1    11.77333     3.92444   -15.69777
   106   3    15.69777     3.92444   -15.69777
   107   1   -15.69777     7.84889   -15.69777
   108   2   -11.77333     7.84889   -15.69777
   109   2    -7.84889     7.84889   -15.69777
   110   1    -3.92444     7.84889   -15.69777
   111   2     0.00000     7.84889   -15.69777
   112   3     3.92444     7.84889   -15.69777
   113   2     7.84889     7.84889   -15.69777
   114   2    11.77333     7.84889   -15.69777
   115   1    15.69777     7.84889   -15.69777
   116   2   -11.77333    11.77333   -15.69777
   117   2    -7.84889    11.77333   -15.69777
   118   1    -3.92444    11.77333   -15.69777
   119   1     0.00000    11.77333   -15.69777
   120   2     3.92444    11.77333   -15.69777
   121   2     7.84889    11.77333   -15.69777
   122   3    11.77333    11.77333   -15.69777
   123   2    -7.84889    15.69777   -15.69777
   124   2    -3.92444    15.69777   -15.69777
   125   3     0.00000    15.69777   -15.69777
   126   3     3.92444    15.69777   -15.69777
   127   2     7.84889    15.69777   -15.69777
   128   3    -7.84889   -19.62221   -11.77333
   129   2    -3.92444   -19.62221   -11.77333
   130   1     0.00000   -19.62221   -11.77333
   131   1     3.92444   -19.62221   -11.77333
   132   2     7.84889   -19.62221   -11.77333
   133   1   -11.77333   -15.69777   -11.77333
   134   1    -7.84889   -15.69777   -11.77333
   135   3    -3.92444   -15.69777   -11.77333
   136   3     0.00000   -15.69777   -11.77333
   137   3     3.92444   -15.69777   -11.77333
   138   2     7.84889   -15.69777   -11.77333
   139   3    11.77333   -15.69777   -11.77333
   140   1   -15.69777   -11.77333   -11.77333
   141   1   -11.77333   -11.77333   -11.77333
   142   2    -7.84889   -11.77333   -11.77333
   143   1    -3.92444   -11.77333   -11.77333
   144   2     0.00000   -11.77333   -11.77333
   145   1     3.92444   -11.77333   -11.77333
   146   2     7.84889   -11.77333   -11.77333
   147   1    11.77333   -11.77333   -11.77333
   148   1    15.69777   -11.77333   -11.77333
   149   2   -19.62221    -7.84889   -11.77333
   150   3   -15.69777    -7.84889   -11.77333
   151   1   -11.77333    -7.84889   -11.77333
   152   3    -7.84889    -7.84889   -11.77333
   153   2    -3.92444    -7.84889   -11.77333
   154   2     0.00000    -7.84889   -11.77333
   155   1     3.92444    -7.84889   -11.77333
   156   3     7.84889    -7.84889   -11.77333
   157   3    11.77333    -7.84889   -11.77333
   158   1    15.69777    -7.84889   -11.77333
   159   2    19.62221    -7.84889   -11.77333
   160   1   -19.62221    -3.92444   -11.77333
   161   3   -15.69777    -3.92444   -11.77333
   162   2   -11.77333    -3.92444   -11.77333
   163   2    -7.84889    -3.92444   -11.77333
   164   2    -3.92444    -3.92444   -11.77333
   165   3     0.00000    -3.92444   -11.77333
   166   3     3.92444    -3.92444   -11.77333
   167   1     7.84889    -3.92444   -11.77333
   168   1    11.77333    -3.92444   -11.77333
   169   1    15.69777    -3.92444   -11.77333
   170   2    19.62221    -3.92444   -11.77333
   171   1   -19.62221     0.00000   -11.77333
   172   2   -15.69777     0.00000   -11.77333
   173   2   -11.77333     0.00000   -11.77333
   174   2    -7.84889     0.00000   -11.77333
   175   1    -3.92444     0.00000   -11.77333
   176   2     0.00000     0.00000   -11.77333
   177   2     3.92444     0.00000   -11.77333
   178   2     7.84889     0.00000   -11.77333
   179   3    11.77333     0.00000   -11.77333
   180   1    15.69777     0.00000   -11.77333
   181   1    19.62221     0.00000   -11.77333
   182   2   -19.62221     3.92444   -11.77333
   183   2   -15.69777     3.92444   -11.77333
   184   1   -11.77333     3.92444   -11.77333
   185   3    -7.84889     3.92444   -11.77333
   186   2    -3.92444     3.92444   -11.77333
   187   3     0.00000     3.92444   -11.77333
   188   1     3.92444     3.92444   -11.77333
   189   1     7.84889     3.92444   -11.77333
   190   3    11.77333     3.92444   -11.77333
   191   2    15.69777     3.92444   -11.77333
   192   1    19.62221     3.92444   -11.77333
   193   2   -19.62221     7.84889   -11.77333
   194   2   -15.69777     7.84889   -11.77333
   195   2   -11.77333     7.84889   -11.77333
   196   1    -7.84889     7.84889   -11.77333
   197   2    -3.92444     7.84889   -11.77333
   198   1     0.00000     7.84889   -11.77333
   199   2     3.92444     7.84889   -11.77333
   200   3     7.84889     7.84889   -11.77333
   201   1    11.77333     7.84889   -11.77333
   202   2    15.69777     7.84889   -11.77333
   203   3    19.62221     7.84889   -11.77333
   204   3   -15.69777    11.77333   -11.77333
   205   2   -11.77333    11.77333   -11.77333
   206   2    -7.84889    11.77333   -11.77333
   207   2    -3.92444    11.77333   -11.77333
   208   2     0.00000    11.77333   -11.77333
   209   2     3.92444    11.77333   -11.77333
   210   2     7.84889    11.77333   -11.77333
   211   2    11.77333    11.77333   -11.77333
   212   1    15.69777    11.77333   -11.77333
   213   3   -11.77333    15.69777   -11.77333
   214   3    -7.84889    15.69777   -11.77333
   215   3    -3.92444    15.69777   -11.77333
   216   1     0.00000    15.69777   -11.77333
   217   2     3.92444    15.69777   -11.77333
   218   3     7.84889    15.69777   -11.77333
   219   1    11.77333    15.69777   -11.77333
   220   3    -7.84889    19.62221   -11.77333
   221   2    -3.92444    19.62221   -11.77333
   222   3     0.00000    19.62221   -11.77333
   223   1     3.92444    19.62221   -11.77333
   224   2     7.84889    19.62221   -11.77333
   225   2     0.00000   -23.54666    -7.84889
   226   1   -11.77333   -19.62221    -7.84889
   227   3    -7.84889   -19.62221    -7.84889
   228   3    -3.92444   -19.62221    -7.84889
   229   2     0.00000   -19.62221    -7.84889
   230   2     3.92444   -19.62221    -7.84889
   231   1     7.84889   -19.62221    -7.84889
   232   2    11.77333   -19.62221    -7.84889
   233   3   -15.69777   -15.69777    -7.84889
   234   2   -11.77333   -15.69777    -7.84889
   235   3    -7.84889   -15.69777    -7.84889
   236   1    -3.92444   -15.69777    -7.84889
   237   2     0.00000   -15.69777    -7.84889
   238   2     3.92444   -15.69777    -7.84889
   239   3     7.84889   -15.69777    -7.84889
   240   1    11.77333   -15.69777    -7.84889
   241   3    15.69777   -15.69777    -7.84889
   242   2   -19.62221   -11.77333    -7.84889
   243   3   -15.69777   -11.77333    -7.84889
   244   3   -11.77333   -11.77333    -7.84889
   245   2    -7.84889   -11.77333    -7.84889
   246   2    -3.92444   -11.77333    -7.84889
   247   2     0.00000   -11.77333    -7.84889
   248   2     3.92444   -11.77333    -7.84889
   249   3     7.84889   -11.77333    -7.84889
   250   2    11.77333   -11.77333    -7.84889
   251   2    15.69777   -11.77333    -7.84889
   252   2    19.62221   -11.77333    -7.84889
   253   3   -19.62221    -7.84889    -7.84889
   254   1   -15.69777    -7.84889    -7.84889
   255   1   -11.77333    -7.84889    -7.84889
   256   2    -7.84889    -7.84889    -7.84889
   257   2    -3.92444    -7.84889    -7.84889
   258   2     0.00000    -7.84889    -7.84889
   259   2     3.92444    -7.84889    -7.84889
   260   2     7.84889    -7.84889    -7.84889
   261   3    11.77333    -7.84889    -7.84889
   262   2    15.69777    -7.84889    -7.84889
   263   1    19.62221    -7.84889    -7.84889
   264   2   -19.62221    -3.92444    -7.84889
   265   2   -15.69777    -3.92444    -7.84889
   266   2   -11.77333    -3.92444    -7.84889
   267   2    -7.84889    -3.92444    -7.84889
   268   2    -3.92444    -3.92444    -7.84889
   269   3     0.00000    -3.92444    -7.84889
   270   2     3.92444    -3.92444    -7.84889
   271   3     7.84889    -3.92444    -7.84889
   272   1    11.77333    -3.92444    -7.84889
   273   2    15.69777    -3.92444    -7.84889
   274   3    19.62221    -3.92444    -7.84889
   275   2   -23.54666     0.00000    -7.84889
   276   2   -19.62221     0.00000    -7.84889
   277   2   -15.69777     0.00000    -7.84889
   278   2   -11.77333     0.00000    -7.84889
   279   1    -7.84889     0.00000    -7.84889
   280   2    -3.92444     0.00000    -7.84889
   281   2     0.00000     0.00000    -7.84889
   282   2     3.92444     0.00000    -7.84889
   283   2     7.84889     0.00000    -7.84889
   284   3    11.77333     0.00000    -7.84889
   285   2    15.69777     0.00000    -7.84889
   286   2    19.62221     0.00000    -7.84889
   287   1    23.54666     0.00000    -7.84889
   288   1   -19.62221     3.92444    -7.84889
   289   3   -15.69777     3.92444    -7.84889
   290   2   -11.77333     3.92444    -7.84889
   291   1    -7.84889     3.92444    -7.84889
   292   1    -3.92444     3.92444    -7.84889
   293   2     0.00000     3.92444    -7.84889
   294   2     3.92444     3.92444    -7.84889
   295   1     7.84889     3.92444    -7.84889
   296   1    11.77333     3.92444    -7.84889
   297   1    15.69777     3.92444    -7.84889
   298   2    19.62221     3.92444    -7.84889
   299   1   -19.62221     7.84889    -7.84889
   300   1   -15.69777     7.84889    -7.84889
   301   1   -11.77333     7.84889    -7.84889
   302   2    -7.84889     7.84889    -7.84889
   303   3    -3.92444     7.84889    -7.84889
   304   2     0.00000     7.84889    -7.84889
   305   2     3.92444     7.84889    -7.84889
   306   2     7.84889     7.84889    -7.84889
   307   2    11.77333     7.84889    -7.84889
   308   2    15.69777     7.84889    -7.84889
   309   3    19.62221     7.84889    -7.84889
   310   2   -19.62221    11.77333    -7.84889
   311   2   -15.69777    11.77333    -7.84889
   312   2   -11.77333    11.77333    -7.84889
   313   1    -7.84889    11.77333    -7.84889
   314   3    -3.92444    11.77333    -7.84889
   315   2     0.00000    11.77333    -7.84889
   316   2     3.92444    11.77333    -7.84889
   317   1     7.84889    11.77333    -7.84889
   318   3    11.77333    11.77333    -7.84889
   319   3    15.69777    11.77333    -7.84889
   320   1    19.62221    11.77333    -7.84889
   321   3   -15.69777    15.69777    -7.84889
   322   1   -11.77333    15.69777    -7.84889
   323   1    -7.84889    15.69777    -7.84889
   324   2    -3.92444    15.69777    -7.84889
   325   2     0.00000    15.69777    -7.84889
   326   2     3.92444    15.69777    -7.84889
   327   2     7.84889    15.69777    -7.84889
   328   2    11.77333    15.69777    -7.84889
   329   3    15.69777    15.69777    -7.84889
   330   1   -11.77333    19.62221    -7.84889
   331   3    -7.84889    19.62221    -7.84889
   332   1    -3.92444    19.62221    -7.84889
   333   3     0.00000    19.62221    -7.84889
   334   3     3.92444    19.62221    -7.84889
   335   2     7.84889    19.62221    -7.84889
   336   1    11.77333    19.62221    -7.84889
   337   1     0.00000    23.54666    -7.84889
   338   3    -3.92444   -23.54666    -3.92444
   339   3     0.00000   -23.54666    -3.92444
   340   1     3.92444   -23.54666    -3.92444
   341   2   -11.77333   -19.62221    -3.92444
   342   3    -7.84889   -19.62221    -3.92444
   343   1    -3.92444   -19.62221    -3.92444
   344   1     0.00000   -19.62221    -3.92444
   345   2     3.92444   -19.62221    -3.92444
   346   1     7.84889   -19.62221    -3.92444
   347   3    11.77333   -19.62221    -3.92444
   348   1   -15.69777   -15.69777    -3.92444
   349   3   -11.77333   -15.69777    -3.92444
   350   2    -7.84889   -15.69777    -3.92444
   351   3    -3.92444   -15.69777    -3.92444
   352   2     0.00000   -15.69777    -3.92444
   353   2     3.92444   -15.69777    -3.92444
   354   2     7.84889   -15.69777    -3.92444
   355   2    11.77333   -15.69777    -3.92444
   356   3    15.69777   -15.69777    -3.92444
   357   2   -19.62221   -11.77333    -3.92444
   358   2   -15.69777   -11.77333    -3.92444
   359   3   -11.77333   -11.77333    -3.92444
   360   2    -7.84889   -11.77333    -3.92444
   361   3    -3.92444   -11.77333    -3.92444
   362   1     0.00000   -11.77333    -3.92444
   363   2     3.92444   -11.77333    -3.92444
   364   1     7.84889   -11.77333    -3.92444
   365   2    11.77333   -11.77333    -3.92444
   366   2    15.69777   -11.77333    -3.92444
   367   2    19.62221   -11.77333    -3.92444
   368   2   -19.62221    -7.84889    -3.92444
   369   2   -15.69777    -7.84889    -3.92444
   370   2   -11.77333    -7.84889    -3.92444
   371   1    -7.84889    -7.84889    -3.92444
   372   2    -3.92444    -7.84889    -3.92444
   373   1     0.00000    -7.84889    -3.92444
   374   2     3.92444    -7.84889    -3.92444
   375   3     7.84889    -7.84889    -3.92444
   376   2    11.77333    -7.84889    -3.92444
   377   2    15.69777    -7.84889    -3.92444
   378   3    19.62221    -7.84889    -3.92444
   379   1   -23.54666    -3.92444    -3.92444
   380   2   -19.62221    -3.92444    -3.92444
   381   2   -15.69777    -3.92444    -3.92444
   382   2   -11.77333    -3.92444    -3.92444
   383   2    -7.84889    -3.92444    -3.92444
   384   2    -3.92444    -3.92444    -3.92444
   385   1     0.00000    -3.92444    -3.92444
   386   3     3.92444    -3.92444    -3.92444
   387   2     7.84889    -3.92444    -3.92444
   388   2    11.77333    -3.92444    -3.92444
   389   2    15.69777    -3.92444    -3.92444
   390   2    19.62221    -3.92444    -3.92444
   391   1    23.54666    -3.92444    -3.92444
   392   3   -23.54666     0.00000    -3.92444
   393   2   -19.62221     0.00000    -3.92444
   394   2   -15.69777     0.00000    -3.92444
   395   3   -11.77333     0.00000    -3.92444
   396   3    -7.84889     0.00000    -3.92444
   397   2    -3.92444     0.00000    -3.92444
   398   2     0.00000     0.00000    -3.92444
   399   2     3.92444     0.00000    -3.92444
   400   3     7.84889     0.00000    -3.92444
   401   1    11.77333     0.00000    -3.92444
   402   1    15.69777     0.00000    -3.92444
   403   2    19.62221     0.00000    -3.92444
   404   2    23.54666     0.00000    -3.92444
   405   2   -23.54666     3.92444    -3.92444
   406   1   -19.62221     3.92444    -3.92444
   407   2   -15.69777     3.92444    -3.92444
   408   2   -11.77333     3.92444    -3.92444
   409   1    -7.84889     3.92444    -3.92444
   410   1    -3.92444     3.92444    -3.92444
   411   1     0.00000     3.92444    -3.92444
   412   2     3.92444     3.92444    -3.92444
   413   3     7.84889     3.92444    -3.92444
   414   3    11.77333     3.92444    -3.92444
   415   2    15.69777     3.92444    -3.92444
   416   1    19.62221     3.92444    -3.92444
   417   3    23.54666     3.92444    -3.92444
   418   2   -19.62221     7.84889    -3.92444
   419   3   -15.69777     7.84889    -3.92444
   420   3   -11.77333     7.84889    -3.92444
   421   1    -7.84889     7.84889    -3.92444
   422   1    -3.92444     7.84889    -3.92444
   423   1     0.00000     7.84889    -3.92444
   424   3     3.92444     7.84889    -3.92444
   425   2     7.84889     7.84889    -3.92444
   426   2    11.77333     7.84889    -3.92444
   427   2    15.69777     7.84889    -3.92444
   428   2    19.62221     7.84889    -3.92444
   429   1   -19.62221    11.77333    -3.92444
   430   3   -15.69777    11.77333    -3.92444
   431   1   -11.77333    11.77333    -3.92444
   432   2    -7.84889    11.77333    -3.92444
   433   3    -3.92444    11.77333    -3.92444
   434   2     0.00000    11.77333    -3.92444
   435   2     3.92444    11.77333    -3.92444
   436   2     7.84889    11.77333    -3.92444
   437   2    11.77333    11.77333    -3.92444
   438   3    15.69777    11.77333    -3.92444
   439   3    19.62221    11.77333    -3.92444
   440   3   -15.69777    15.69777    -3.92444
   441   1   -11.77333    15.69777    -3.92444
   442   1    -7.84889    15.69777    -3.92444
   443   1    -3.92444    15.69777    -3.92444
   444   3     0.00000    15.69777    -3.92444
   445   3     3.92444    15.69777    -3.92444
   446   2     7.84889    15.69777    -3.92444
   447   2    11.77333    15.69777    -3.92444
   448   1    15.69777    15.69777    -3.92444
   449   2   -11.77333    19.62221    -3.92444
   450   1    -7.84889    19.62221    -3.92444
   451   2    -3.92444    19.62221    -3.92444
   452   3     0.00000    19.62221    -3.92444
   453   1     3.92444    19.62221    -3.92444
   454   1     7.84889    19.62221    -3.92444
   455   3    11.77333    19.62221    -3.92444
   456   3    -3.92444    23.54666    -3.92444
   457   2     0.00000    23.54666    -3.92444
   458   3     3.92444    23.54666    -3.92444
   459   2    -7.84889   -23.54666     0.00000
   460   1    -3.92444   -23.54666     0.00000
   461   2     0.00000   -23.54666     0.00000
   462   3     3.92444   -23.54666     0.00000
   463   1     7.84889   -23.54666     0.00000
   464   2   -11.77333   -19.62221     0.00000
   465   3    -7.84889   -19.62221     0.00000
   466   2    -3.92444   -19.62221     0.00000
   467   1     0.00000   -19.62221     0.00000
   468   1     3.92444   -19.62221     0.00000
   469   2     7.84889   -19.62221     0.00000
   470   3    11.77333   -19.62221     0.00000
   471   2   -15.69777   -15.69777     0.00000
   472   2   -11.77333   -15.69777     0.00000
   473   1    -7.84889   -15.69777     0.00000
   474   2    -3.92444   -15.69777     0.00000
   475   3     0.00000   -15.69777     0.00000
   476   2     3.92444   -15.69777     0.00000
   477   2     7.84889   -15.69777     0.00000
   478   2    11.77333   -15.69777     0.00000
   479   2    15.69777   -15.69777     0.00000
   480   2   -19.62221   -11.77333     0.00000
   481   1   -15.69777   -11.77333     0.00000
   482   3   -11.77333   -11.77333     0.00000
   483   3    -7.84889   -11.77333     0.00000
   484   2    -3.92444   -11.77333     0.00000
   485   1     0.00000   -11.77333     0.00000
   486   3     3.92444   -11.77333     0.00000
   487   2     7.84889   -11.77333     0.00000
   488   3    11.77333   -11.77333     0.00000
   489   1    15.69777   -11.77333     0.00000
   490   2    19.62221   -11.77333     0.00000
   491   3   -23.54666    -7.84889     0.00000
   492   2   -19.62221    -7.84889     0.00000
   493   3   -15.69777    -7.84889     0.00000
   494   1   -11.77333    -7.84889     0.00000
   495   3    -7.84889    -7.84889     0.00000
   496   2    -3.92444    -7.84889     0.00000
   497   2     0.00000    -7.84889     0.00000
   498   1     3.92444    -7.84889     0.00000
   499   2     7.84889    -7.84889     0.00000
   500   3    11.77333    -7.84889     0.00000
   501   1    15.69777    -7.84889     0.00000
   502   1    19.62221    -7.84889     0.00000
   503   1    23.54666    -7.84889     0.00000
   504   1   -23.54666    -3.92444     0.00000
   505   2   -19.62221    -3.92444     0.00000
   506   2   -15.69777    -3.92444     0.00000
   507   3   -11.77333    -3.92444     0.00000
   508   1    -7.84889    -3.92444     0.00000
   509   2    -3.92444    -3.92444     0.00000
   510   2     0.00000    -3.92444     0.00000
   511   1     3.92444    -3.92444     0.00000
   512   2     7.84889    -3.92444     0.00000
   513   1    11.77333    -3.92444     0.00000
   514   3    15.69777    -3.92444     0.00000
   515   1    19.62221    -3.92444     0.00000
   516   3    23.54666    -3.92444     0.00000
   517   2   -23.54666     0.00000     0.00000
   518   2   -19.62221     0.00000     0.00000
   519   2   -15.69777     0.00000     0.00000
   520   3   -11.77333     0.00000     0.00000
   521   2    -7.84889     0.00000     0.00000
   522   3    -3.92444     0.00000     0.00000
   523   2     0.00000     0.00000     0.00000
   524   3     3.92444     0.00000     0.00000
   525   1     7.84889     0.00000     0.00000
   526   3    11.77333     0.00000     0.00000
   527   2    15.69777     0.00000     0.00000
   528   1    19.62221     0.00000     0.00000
   529   2    23.54666     0.00000     0.00000
   530   2   -23.54666     3.92444     0.00000
   531   3   -19.62221     3.92444     0.00000
   532   1   -15.69777     3.92444     0.00000
   533   1   -11.77333     3.92444     0.00000
   534   2    -7.84889     3.92444     0.00000
   535   1    -3.92444     3.92444     0.00000
   536   2     0.00000     3.92444     0.00000
   537   3     3.92444     3.92444     0.00000
   538   3     7.84889     3.92444     0.00000
   539   1    11.77333     3.92444     0.00000
   540   1    15.69777     3.92444     0.00000
   541   3    19.62221     3.92444     0.00000
   542   3    23.54666     3.92444     0.00000
   543   3   -23.54666     7.84889     0.00000
   544   2   -19.62221     7.84889     0.00000
   545   2   -15.69777     7.84889     0.00000
   546   1   -11.77333     7.84889     0.00000
   547   1    -7.84889     7.84889     0.00000
   548   1    -3.92444     7.84889     0.00000
   549   2     0.00000     7.84889     0.00000
   550   2     3.92444     7.84889     0.00000
   551   3     7.84889     7.84889     0.00000
   552   2    11.77333     7.84889     0.00000
   553   1    15.69777     7.84889     0.00000
   554   1    19.62221     7.84889     0.00000
   555   2    23.54666     7.84889     0.00000
   556   3   -19.62221    11.77333     0.00000
   557   3   -15.69777    11.77333     0.00000
   558   1   -11.77333    11.77333     0.00000
   559   3    -7.84889    11.77333     0.00000
   560   2    -3.92444    11.77333     0.00000
   561   3     0.00000    11.77333     0.00000
   562   3     3.92444    11.77333     0.00000
   563   2     7.84889    11.77333     0.00000
   564   2    11.77333    11.77333     0.00000
   565   3    15.69777    11.77333     0.00000
   566   3    19.62221    11.77333     0.00000
   567   3   -15.69777    15.69777     0.00000
   568   2   -11.77333    15.69777     0.00000
   569   2    -7.84889    15.69777     0.00000
   570   2    -3.92444    15.69777     0.00000
   571   1     0.00000    15.69777     0.00000
   572   3     3.92444    15.69777     0.00000
   573   1     7.84889    15.69777     0.00000
   574   2    11.77333    15.69777     0.00000
   575   3    15.69777    15.69777     0.00000
   576   1   -11.77333    19.62221     0.00000
   577   1    -7.84889    19.62221     0.00000
   578   1    -3.92444    19.62221     0.00000
   579   1     0.00000    19.62221     0.00000
   580   2     3.92444    19.62221     0.00000
   581   2     7.84889    19.62221     0.00000
   582   2    11.77333    19.62221     0.00000
   583   1    -7.84889    23.54666     0.00000
   584   1    -3.92444    23.54666     0.00000
   585   3     0.00000    23.54666     0.00000
   586   2     3.92444    23.54666     0.00000
   587   2     7.84889    23.54666     0.00000
   588   3    -3.92444   -23.54666     3.92444
   589   2     0.00000   -23.54666     3.92444
   590   1     3.92444   -23.54666     3.92444
   591   1   -11.77333   -19.62221     3.92444
   592   1    -7.84889   -19.62221     3.92444
   593   2    -3.92444   -19.62221     3.92444
   594   2     0.00000   -19.62221     3.92444
   595   1     3.92444   -19.62221     3.92444
   596   2     7.84889   -19.62221     3.92444
   597   1    11.77333   -19.62221     3.92444
   598   2   -15.69777   -15.69777     3.92444
   599   1   -11.77333   -15.69777     3.92444
   600   1    -7.84889   -15.69777     3.92444
   601   3    -3.92444   -15.69777     3.92444
   602   2     0.00000   -15.69777     3.92444
   603   1     3.92444   -15.69777     3.92444
   604   1     7.84889   -15.69777     3.92444
   605   3    11.77333   -15.69777     3.92444
   606   2    15.69777   -15.69777     3.92444
   607   3   -19.62221   -11.77333     3.92444
   608   3   -15.69777   -11.77333     3.92444
   609   1   -11.77333   -11.77333     3.92444
   610   3    -7.84889   -11.77333     3.92444
   611   1    -3.92444   -11.77333     3.92444
   612   1     0.00000   -11.77333     3.92444
   613   2     3.92444   -11.77333     3.92444
   614   3     7.84889   -11.77333     3.92444
   615   2    11.77333   -11.77333     3.92444
   616   2    15.69777   -11.77333     3.92444
   617   1    19.62221   -11.77333     3.92444
   618   3   -19.62221    -7.84889     3.92444
   619   2   -15.69777    -7.84889     3.92444
   620   2   -11.77333    -7.84889     3.92444
   621   2    -7.84889    -7.84889     3.92444
   622   2    -3.92444    -7.84889     3.92444
   623   1     0.00000    -7.84889     3.92444
   624   2     3.92444    -7.84889     3.92444
   625   1     7.84889    -7.84889     3.92444
   626   1    11.77333    -7.84889     3.92444
   627   2    15.69777    -7.84889     3.92444
   628   3    19.62221    -7.84889     3.92444
   629   3   -23.54666    -3.92444     3.92444
   630   3   -19.62221    -3.92444     3.92444
   631   3   -15.69777    -3.92444     3.92444
   632   3   -11.77333    -3.92444     3.92444
   633   2    -7.84889    -3.92444     3.92444
   634   2    -3.92444    -3.92444     3.92444