4321
 Atoms. Timestep: 4193
3 -0.035229 -7.64659 -22.8056
2 -3.76587 -3.89175 -22.7871
3 0.0286125 -3.75469 -22.5823
3 3.88677 -3.7619 -22.8807
1 -7.21941 0.277614 -22.4922
1 -3.76374 -0.111872 -22.6459
3 0.130161 0.129929 -22.8569
2 3.54892 -0.171602 -23.2451
1 7.67711 -0.162651 -22.5598
1 -3.51578 4.10853 -22.7793
3 0.0595913 3.72693 -22.6465
2 3.68137 3.96948 -22.7625
3 0.0105646 7.68643 -22.7338
1 -8.02787 -11.6241 -18.8927
3 -3.65196 -11.8105 -19.1032
1 0.0810431 -11.694 -19.1442
2 4.09891 -11.5568 -19.1729
2 7.67714 -11.3587 -18.9951
1 -11.7866 -7.79585 -19.1675
2 -7.74725 -7.6656 -18.9773
2 -3.96317 -7.55079 -19.1724
2 0.200023 -7.63673 -19.0204
1 3.76483 -7.61267 -19.2227
2 7.66412 -7.60203 -19.0561
3 11.3571 -7.562 -19.016
2 -11.9149 -3.93838 -19.194
1 -7.58894 -3.62549 -18.9596
1 -3.87663 -3.84282 -18.9544
1 0.0490053 -3.7813 -19.1773
2 3.8479 -3.57645 -19.3249
2 7.67299 -3.85038 -19.265
1 11.3846 -3.93283 -19.2807
3 -11.4736 0.0436758 -19.0349
1 -7.49295 0.204355 -18.9829
1 -3.76777 0.169455 -18.8299
2 0.0850593 0.0342364 -19.0554
2 3.68965 0.049114 -19.0015
2 7.68183 0.0895047 -19.441
2 11.947 -0.120111 -19.5013
3 -11.576 3.91137 -18.9294
2 -7.57687 3.84454 -18.7814
1 -3.7503 3.96368 -19.1136
3 0.119703 4.03226 -18.9902
1 3.69555 4.15424 -18.8967
2 7.84555 3.92755 -19.3175
1 11.9364 3.98692 -19.3433
3 -11.5227 7.66259 -18.6133
1 -7.66854 7.60377 -19.0491
1 -3.85831 7.74754 -19.0246
3 0.115067 7.79421 -19.0473
2 3.75189 7.8249 -19.0329
3 7.63169 7.77754 -19.0617
2 11.7417 8.32273 -19.0778
2 -7.50399 11.337 -19.1501
2 -3.9084 11.4352 -19.1443
3 0.00783717 11.4807 -19.1082
2 3.89748 11.4542 -19.1021
2 7.71297 11.4639 -18.5819
1 -7.99513 -15.1577 -15.3016
3 -3.83116 -15.4688 -15.27
2 -0.253497 -15.2084 -15.1887
3 3.92835 -15.213 -15.1979
3 7.66707 -15.1499 -15.1592
1 -11.5504 -11.8145 -15.339
2 -7.60645 -11.4991 -15.3806
1 -3.64941 -11.4869 -15.2753
2 0.00691324 -11.5976 -15.2912
3 3.68844 -11.3104 -15.2387
1 7.74179 -11.2367 -15.415
2 11.6108 -11.5258 -15.6001
1 -15.3114 -8.13006 -15.4055
2 -11.2663 -7.7151 -15.3998
2 -7.6912 -7.46441 -15.5173
2 -3.84974 -7.60839 -15.1324
2 -0.155165 -7.58669 -15.1047
2 3.79928 -7.39304 -15.1755
3 7.59703 -7.43858 -15.3923
3 11.4568 -7.53987 -15.3481
2 15.7187 -8.23344 -15.9053
1 -15.5932 -4.2288 -15.4826
2 -11.4961 -3.92402 -15.3955
1 -7.71911 -3.86212 -15.431
2 -3.98748 -3.76265 -15.2863
2 -0.120941 -3.82059 -15.329
2 3.80501 -3.82851 -15.3283
2 7.59576 -3.73523 -15.2774
2 11.6417 -3.81805 -15.4761
2 15.1993 -3.8947 -15.6757
2 -15.2773 0.0964552 -15.1392
2 -11.5556 0.015412 -15.2216
2 -7.87055 -0.0421676 -15.189
2 -3.92286 0.14035 -15.4578
1 -0.0110527 0.0163921 -15.3389
1 3.87647 0.0355825 -15.4589
3 7.62728 0.267684 -15.5765
1 11.7023 0.125044 -15.5115
2 15.3991 0.0925205 -15.3895
3 -15.3587 3.78758 -15.219
3 -11.5092 3.8344 -15.1349
3 -7.75034 3.88553 -15.0488
2 -3.79963 3.96622 -15.3402
3 0.0405224 4.02518 -15.3549
2 3.63325 4.0905 -15.2315
1 7.71959 3.99415 -15.3947
1 11.6398 3.8244 -15.399
3 15.4392 3.96132 -15.5522
1 -15.3588 7.94243 -15.1791
2 -11.6601 7.62317 -15.0638
2 -7.65629 7.87677 -15.1334
1 -3.71407 7.78156 -15.0434
2 0.102386 7.85325 -15.2895
3 3.97775 7.7881 -15.2566
2 7.60387 7.50899 -15.3072
2 11.5136 7.72355 -15.5072
1 15.4164 7.99621 -15.5931
2 -11.5924 11.5942 -15.0506
2 -7.52616 11.5491 -15.2483
1 -3.65363 11.4799 -15.2922
1 0.0710109 11.4242 -15.2667
2 3.78352 11.4821 -15.3621
2 7.80951 11.4167 -15.4717
3 11.6378 11.7219 -15.4367
2 -7.57873 15.0394 -15.1058
2 -3.81204 15.2872 -15.3474
3 0.0379807 15.3297 -15.3224
3 3.83696 15.4574 -15.3436
2 8.12571 15.7217 -15.3418
3 -7.71333 -18.9696 -11.5115
2 -3.97199 -19.2049 -11.7391
1 0.0672876 -19.1063 -11.4047
1 3.96777 -19.0385 -11.5285
2 7.69285 -18.7519 -11.4803
1 -11.6231 -15.5441 -11.3924
1 -7.86809 -15.4663 -11.325
3 -3.81644 -15.6355 -11.2544
3 0.0466505 -15.3871 -11.2936
3 3.90852 -15.1203 -11.3531
2 7.7416 -15.3296 -11.4638
3 11.4712 -15.1869 -11.5681
1 -15.226 -11.6942 -11.5902
1 -11.4782 -11.5074 -11.4444
2 -7.79764 -11.5978 -11.3926
1 -3.85874 -11.6598 -11.4978
2 -0.126315 -11.3764 -11.2762
1 3.75205 -11.359 -11.5054
2 7.86794 -11.3675 -11.5213
1 11.3525 -11.3887 -11.4143
1 15.3222 -11.2714 -11.8283
2 -19.0792 -8.03937 -11.4089
3 -15.1409 -7.96753 -11.4083
1 -11.5006 -7.76704 -11.5627
3 -7.71845 -7.59275 -11.5274
2 -3.99722 -7.5953 -11.4004
2 -0.147349 -7.61588 -11.4441
1 3.90047 -7.54418 -11.5222
3 7.81188 -7.51103 -11.5316
3 11.4992 -7.3882 -11.5718
1 15.3096 -7.81721 -11.7025
2 19.2986 -7.9277 -11.832
1 -19.163 -4.36602 -11.5397
3 -15.3453 -4.0725 -11.4629
2 -11.6476 -3.9588 -11.5732
2 -7.7487 -4.0357 -11.4324
2 -4.03066 -3.89006 -11.667
3 -0.0583629 -3.75238 -11.5088
3 3.94935 -3.80552 -11.598
1 7.61617 -3.66209 -11.5742
1 11.5172 -3.61753 -11.6558
1 15.5882 -3.84786 -11.6438
2 19.2713 -4.05912 -11.5168
1 -19.8994 -0.280223 -12.2055
2 -15.5202 -0.185773 -11.5008
2 -11.5503 0.107563 -11.3708
2 -7.65513 0.0842191 -11.5476
1 -3.9585 0.048876 -11.3006
2 -0.100424 -0.170077 -11.4508
2 3.86027 0.0822174 -11.671
2 7.68068 0.162753 -11.5396
3 11.5388 0.126683 -11.8745
1 15.4764 0.109464 -11.7072
1 19.4768 0.00731131 -12.049
2 -19.0996 3.76505 -11.2822
2 -15.2602 3.61694 -11.2813
1 -11.5108 3.85684 -11.2803
3 -7.86277 3.78538 -11.4716
2 -3.66721 3.80546 -11.4404
3 -0.0727544 3.89772 -11.5464
1 3.7472 3.94987 -11.5052
1 7.76131 3.92522 -11.6241
3 11.4731 4.01593 -11.7516
2 15.5675 3.73226 -11.7793
1 19.4221 4.04679 -11.5299
2 -18.7173 7.46406 -11.2454
2 -15.3756 7.66036 -11.397
2 -11.2928 7.5695 -11.2658
1 -7.66213 7.47345 -11.5299
2 -3.94268 7.45889 -11.3866
1 0.11834 7.79902 -11.3718
2 3.98431 7.87002 -11.5251
3 7.78096 7.62115 -11.4634
1 11.6242 7.45164 -11.8028
2 15.5393 7.78715 -11.8437
3 19.0798 7.89387 -11.8104
3 -15.4394 11.6697 -11.4298
2 -11.4129 11.4468 -11.3223
2 -7.65754 11.3489 -11.3184
2 -3.67974 11.4959 -11.3033
2 0.239431 11.4272 -11.4879
2 3.83892 11.4763 -11.4635
2 7.7339 11.5534 -11.6901
2 11.6647 11.4533 -11.8299
1 15.4789 11.5915 -11.8861
3 -11.3155 15.4014 -11.3987
3 -7.42473 15.0653 -11.2446
3 -3.81211 15.1359 -11.5522
1 -0.00723939 15.3111 -11.6785
2 4.08688 15.4143 -11.501
3 7.57022 15.3009 -11.7232
1 11.7886 15.4135 -11.6769
3 -7.51089 18.7839 -11.2154
2 -3.7125 19.067 -11.5259
3 0.369104 19.2378 -11.775
1 4.02187 19.183 -11.4958
2 8.17568 19.1991 -11.3276
2 0.0751394 -22.8206 -7.51359
1 -11.49 -19.2869 -7.49038
3 -7.49805 -19.1002 -7.74928
3 -3.97117 -19.1522 -7.59275
2 -0.179706 -19.2799 -7.49652
2 3.72422 -19.0864 -7.5606
1 7.52109 -18.9576 -7.60283
2 11.3644 -18.7718 -7.69109
3 -14.9421 -15.6291 -7.755
2 -11.3932 -15.6391 -7.50765
3 -7.81679 -15.4422 -7.62696
1 -3.925 -15.3714 -7.62942
2 -0.229599 -15.3637 -7.71566
2 3.74137 -15.125 -7.41752
3 7.46127 -15.2414 -7.73126
1 11.3793 -15.0002 -7.63525
3 15.2645 -14.9659 -7.60138
2 -18.7443 -11.8278 -7.82651
3 -15.1513 -11.9543 -7.73223
3 -11.5438 -11.5855 -7.56462
2 -7.80453 -11.6398 -7.66081
2 -3.88309 -11.5169 -7.75381
2 -0.186883 -11.4706 -7.62371
2 3.83675 -11.5692 -7.72961
3 7.65681 -11.4541 -7.55117
2 11.5385 -11.3923 -7.70127
2 15.1997 -11.313 -7.48579
2 18.672 -11.2142 -7.51763
3 -19.1933 -8.13247 -7.50654
1 -15.4083 -8.02983 -7.58531
1 -11.587 -7.82604 -7.63774
2 -7.82149 -7.71944 -7.58712
2 -4.15071 -7.89988 -7.59774
2 -0.113421 -7.64656 -7.67797
2 3.86705 -7.5949 -7.69646
2 7.66014 -7.71558 -7.56
3 11.2134 -7.54281 -7.72703
2 15.3785 -7.29851 -7.74951
1 19.0516 -7.54957 -7.67055
2 -19.0144 -4.04823 -7.71636
2 -15.1985 -3.88625 -7.39515
2 -11.5638 -3.86126 -7.46026
2 -7.88207 -4.24536 -7.44284
2 -4.0384 -3.84566 -7.60543
3 -0.152746 -3.82124 -7.62731
2 3.77136 -3.66646 -7.78277
3 7.60184 -3.51106 -7.82487
1 11.6508 -3.65859 -7.79698
2 15.3701 -3.83696 -7.73709
3 19.2657 -3.81676 -7.84469
2 -22.5923 -0.193481 -7.86868
2 -19.1136 -0.477231 -7.54083
2 -15.4401 -0.161802 -7.46003
2 -11.8188 -0.0918964 -7.51196
1 -7.72523 -0.141028 -7.70053
2 -3.75266 -0.0848827 -7.49587
2 -0.00162469 0.0838538 -7.54388
2 3.74117 0.0313782 -7.66426
2 7.87889 0.0723867 -7.8179
3 11.7228 0.223105 -7.90801
2 15.3638 0.0827606 -7.76555
2 19.3451 0.122415 -7.92558
1 22.6833 -0.0603735 -7.90691
1 -19.2002 3.65782 -7.40294
3 -15.2893 3.70621 -7.54125
2 -11.4717 3.79135 -7.38823
1 -7.73875 3.5334 -7.47588
1 -3.77116 3.79324 -7.5912
2 -0.0984164 3.91828 -7.72926
2 3.86431 3.82169 -7.78125
1 7.81792 3.99571 -7.88415
1 11.613 3.80682 -7.75985
1 15.3674 3.86054 -7.91905
2 19.3702 3.92434 -7.91508
1 -19.0511 7.71338 -7.57821
1 -15.2069 7.55247 -7.45532
1 -11.2065 7.56183 -7.73002
2 -7.66422 7.51117 -7.45437
3 -3.76032 7.38786 -7.49278
2 -0.0168459 7.77748 -7.58101
2 3.92128 7.78482 -7.68649
2 7.7687 7.82537 -7.93649
2 11.5869 7.63725 -7.83585
2 15.5592 7.77663 -7.87693
3 19.016 7.51406 -8.02377
2 -19.3349 11.3549 -7.63083
2 -15.2499 11.4484 -7.45872
2 -11.39 11.6697 -7.67465
1 -7.49664 11.4014 -7.68977
3 -3.70365 11.4202 -7.6047
2 0.160132 11.4949 -7.73485
2 3.76697 11.4003 -7.48713
1 7.757 11.4717 -7.85127
3 11.6969 11.2284 -7.84026
3 15.3894 11.571 -7.94995
1 19.1446 11.5238 -8.06782
3 -15.2323 15.1478 -7.54193
1 -11.3037 15.1924 -7.52657
1 -7.32368 15.1669 -7.69684
2 -3.72111 15.395 -7.83524
2 0.143966 15.248 -7.75109
2 3.83225 15.2907 -7.83621
2 7.91841 15.2017 -7.78148
2 11.7179 15.2245 -7.55634
3 15.4562 15.3166 -7.91267
1 -11.3204 18.7369 -7.74977
3 -7.62487 18.7543 -7.47458
1 -3.56977 19.151 -7.75835
3 0.237612 19.3227 -7.62297
3 4.09518 18.9971 -7.64588
2 7.68949 18.9178 -7.54433
1 11.9553 19.1773 -7.96906
1 0.119613 22.6676 -7.58526
3 -4.04428 -22.8424 -3.75476
3 -0.0721489 -22.8002 -3.61517
1 3.56992 -23.0029 -3.68846
2 -11.727 -19.4209 -3.97551
3 -7.77329 -19.1326 -3.88812
1 -4.1024 -19.2501 -3.69148
1 -0.0452221 -19.2234 -3.78588
2 3.82572 -19.1521 -3.49311
1 7.51901 -18.9078 -3.75092
3 11.3993 -18.9252 -3.98922
1 -15.2145 -15.6188 -3.96981
3 -11.585 -15.4036 -3.74354
2 -7.67371 -15.3417 -3.84413
3 -4.05779 -15.3158 -3.71235
2 -0.145491 -15.3413 -3.81527
2 3.9213 -15.2039 -3.80884
2 7.46753 -15.1068 -3.88651
2 11.3978 -15.1755 -3.86051
3 15.274 -15.1573 -3.72543
2 -19.1387 -11.9149 -3.80074
2 -15.2529 -11.8008 -3.965
3 -11.4362 -11.6995 -3.81518
2 -7.61821 -11.3437 -3.90418
3 -3.98841 -11.3474 -3.85011
1 -0.332615 -11.4647 -3.41548
2 3.79344 -11.3963 -3.72733
1 7.60095 -11.4193 -3.85688
2 11.4078 -11.2963 -3.97445
2 15.1307 -11.1478 -3.72892
2 18.9987 -11.4002 -3.55413
2 -18.9829 -7.9617 -3.66022
2 -15.4651 -7.8357 -3.78304
2 -11.5865 -7.90089 -3.83707
1 -7.69768 -7.72341 -3.78219
2 -4.0682 -7.76723 -3.6284
1 0.0113365 -7.65129 -3.93232
2 3.76376 -7.55008 -4.04844
3 7.70424 -7.35951 -3.92573
2 11.151 -7.27389 -3.9047
2 15.1213 -7.30753 -3.78026
3 18.9766 -7.40825 -3.90648
1 -21.6286 -5.36042 -3.70582
2 -19.2774 -4.24787 -3.43986
2 -15.2155 -4.14434 -3.58387
2 -11.5588 -3.93213 -3.65216
2 -7.61834 -3.81086 -3.57548
2 -3.70343 -3.91331 -3.5919
1 -0.236376 -4.03628 -3.96794
3 3.71529 -3.66328 -3.92485
2 7.50015 -3.71204 -4.05736
2 11.5041 -3.59463 -4.079
2 15.4546 -3.48529 -3.87807
2 19.3128 -3.53059 -3.80442
1 23.0661 -3.70332 -3.6753
3 -22.6613 -0.364631 -3.79234
2 -19.1768 -0.41618 -3.8248
2 -15.3486 -0.349342 -3.73929
3 -11.6362 -0.266392 -3.70453
3 -7.76518 -0.0555206 -3.57374
2 -3.81096 -0.154343 -3.67877
2 -0.0114361 -0.130503 -3.80898
2 3.94389 -0.0265279 -3.64006
3 7.81663 -0.0359415 -3.90426
1 11.7799 0.226718 -4.03952
1 15.3092 0.198471 -4.234
2 19.1174 0.0957029 -3.99839
2 23.259 0.129791 -3.89104
2 -22.7004 4.04005 -3.45237
1 -19.2353 3.4394 -3.65785
2 -15.3443 3.51317 -3.65197
2 -11.3677 3.65825 -3.71723
1 -7.8145 3.53005 -3.88903
1 -3.87538 3.67375 -3.62374
1 0.0959575 3.71784 -3.7807
2 4.02598 3.79917 -3.71445
3 7.71566 3.89379 -4.05341
3 11.6671 3.92951 -3.97116
2 15.6506 3.97858 -4.00726
1 19.2596 3.9817 -3.90931
3 22.9726 3.92741 -3.76729
2 -18.9939 7.48173 -3.53266
3 -15.1963 7.4756 -3.78071
3 -11.3423 7.60319 -3.67711
1 -7.73016 7.524 -3.80116
1 -3.80516 7.40115 -3.74881
1 0.247646 7.74044 -3.71327
3 4.01295 7.50721 -3.70734
2 7.68357 7.78227 -4.11121
2 11.6858 7.83348 -3.84626
2 15.536 7.96825 -3.90556
2 19.432 7.59896 -4.09276
1 -19.1437 11.5672 -3.46072
3 -15.0652 11.4257 -3.69285
1 -11.5624 11.4198 -3.83401
2 -7.60596 11.427 -3.77411
3 -3.94062 11.2358 -3.86998
2 0.111551 11.4451 -3.74973
2 3.94193 11.3597 -3.94279
2 7.86705 11.33 -3.94939
2 11.6797 11.3217 -3.98527
3 15.5146 11.583 -4.08796
3 19.294 11.4038 -4.00706
3 -15.1874 15.1863 -3.90126
1 -11.4153 15.2446 -3.85621
1 -7.36538 15.0289 -3.79661
1 -3.74885 15.0864 -3.7813
3 0.132701 15.1777 -4.00237
3 3.93044 15.2537 -4.04818
2 7.71352 15.2916 -4.05249
2 11.6333 15.1851 -3.8096
1 15.8206 15.5274 -4.04124
2 -11.4862 19.1357 -3.78055
1 -7.46989 19.0288 -3.68902
2 -3.69995 18.8706 -3.70967
3 0.09505 19.0851 -3.82607
1 3.98357 19.0352 -3.85262
1 8.07027 19.0515 -3.93397
3 11.5139 18.8549 -3.74436
3 -3.58677 22.7754 -3.68953
2 0.218003 22.7508 -3.71852
3 4.16379 22.7203 -3.88592
2 -7.94121 -23.0755 0.313433
1 -3.94226 -22.9211 0.068819
2 0.170564 -22.8552 0.31362
3 3.55904 -22.7551 0.193345
1 7.11274 -22.5477 -0.128968
2 -11.6702 -19.3626 0.163648
3 -7.7777 -18.9709 0.0928307
2 -3.85857 -19.2024 0.0367643
1 -0.114645 -19.1315 -0.0495791
1 3.61365 -19.0143 -0.0220997
2 7.32711 -18.9582 0.0281088
3 11.5189 -18.718 -0.231102
2 -15.5412 -15.4921 -0.122672
2 -11.5409 -15.3842 -0.051794
1 -7.65623 -15.3157 -0.0132494
2 -4.05195 -15.4366 0.255235
3 -0.203485 -15.1838 0.0365407
2 3.79838 -15.1269 -0.0926656
2 7.57049 -15.0475 -0.132692
2 11.2558 -15.1707 -0.0969579
2 15.0618 -14.8798 0.0355287
2 -19.1954 -11.7363 0.127132
1 -15.4638 -11.7646 0.0591014
3 -11.6565 -11.6051 0.279649
3 -7.67101 -11.5055 -0.111512
2 -3.97443 -11.4223 0.0745118
1 -0.0188978 -11.5811 0.165359
3 3.62743 -11.3208 -0.195095
2 7.6438 -11.3488 0.060632
3 11.2136 -11.3311 -0.191916
1 15.0527 -11.1101 0.0310338
2 18.779 -11.0456 -0.0476384
3 -23.0176 -8.05807 0.301971
2 -19.0415 -8.04969 0.157063
3 -15.414 -7.96129 0.0457098
1 -11.6827 -7.75557 0.167931
3 -7.80298 -7.71381 0.0238554
2 -3.95297 -7.92062 -0.010045
2 -0.0303034 -7.64524 0.113862
1 3.87793 -7.52375 -0.085479
2 7.83777 -7.6067 0.162202
3 11.3835 -7.40332 -0.22435
1 15.3806 -7.32904 0.17773
1 18.8857 -7.27517 0.0791487
1 22.5777 -7.58347 0.132568
1 -22.9253 -3.75723 0.350361
2 -19.2407 -4.13299 0.274574
2 -15.3307 -4.12315 0.13113
3 -11.4719 -4.0825 0.100517
1 -7.65342 -3.97177 0.171448
2 -3.93723 -4.10467 0.107282
2 -0.0764181 -3.73239 0.0910335
1 3.80189 -3.91231 -0.087807
2 7.75404 -3.74192 -0.214124
1 11.5764 -3.62081 -0.0755385
3 15.346 -3.66654 -0.0453968
1 19.2203 -3.68996 -0.0372781
3 22.9006 -3.7308 -0.0550035
2 -22.6073 -0.284018 0.157754
2 -19.2114 -0.210873 -0.032151
2 -15.4636 -0.35266 0.0610452
3 -11.4444 -0.278175 0.149999
2 -7.89207 -0.137294 0.216865
3 -3.7958 -0.133807 0.105798
2 -0.158104 0.0755659 0.0763164
3 3.96733 -0.0265358 0.0501434
1 7.84606 0.0877078 -0.0348795
3 11.586 0.0213637 -0.0847845
2 15.4028 0.0879057 -0.0654372
1 19.2828 0.0505916 0.0354707
2 23.1417 0.239083 -0.0185686
2 -22.761 3.55438 0.291629
3 -19.1905 3.58396 0.0414544
1 -15.2786 3.61159 0.170172
1 -11.4906 3.5738 0.100711
2 -7.7611 3.61099 0.293204
1 -3.9351 3.65708 0.166918
2 0.0564405 3.93333 -0.0408649
3 3.9405 3.98849 0.0107523
3 7.80269 4.13833 -0.107637
1 11.7921 4.01795 -0.225428
1 15.6296 4.00091 -0.180736
3 19.133 4.05759 -0.0679643
3 23.0701 4.05424 0.0340939
3 -22.6616 7.33662 0.509597
2 -18.8105 7.46572 -0.104241
2 -15.2663 7.50859 -0.0507595
1 -11.3565 7.44611 0.0727663
1 -7.54842 7.44822 -0.00399204
1 -3.73035 7.65942 0.0306487
2 0.217807 7.80113 0.188239
2 3.85692 7.72973 0.0490247
3 7.86712 7.60591 -0.104188
2 11.7412 7.63257 -0.103326
1 15.4806 7.73968 -0.0869737
1 19.3427 7.74679 -0.163474
2 23.0959 7.73457 -0.345469
3 -19.0128 11.095 0.0459588
3 -15.0506 11.3888 0.224023
1 -11.4789 11.4709 0.216515
3 -7.47653 11.3721 0.116815
2 -3.71716 11.348 0.0374025
3 0.0244262 11.5279 -0.0152326
3 3.90473 11.2736 -0.162132
2 7.80321 11.4912 -0.0225499
2 11.7088 11.3917 -0.168859
3 15.7097 11.5949 0.0534515
3 19.2613 11.569 -0.0452548
3 -14.9556 15.1231 0.103095
2 -11.0866 15.2174 0.0692524
2 -7.50504 15.0261 0.271577
2 -3.70511 15.3385 0.111583
1 0.252083 15.2838 -0.0122952
3 3.97776 15.2153 -0.0821313
1 7.82427 15.0543 -0.0356415
2 11.6234 15.3799 -0.00251968
3 15.6204 15.4728 -0.0930973
1 -11.7497 19.2457 0.297816
1 -7.66391 19.136 -0.135237
1 -3.83093 18.8262 -0.0880559
1 0.135792 19.1097 -0.0879602
2 4.01116 18.8836 0.0902162
2 7.94545 18.8549 0.239989
2 11.7283 18.9516 0.0984692
1 -7.64489 21.1334 1.62829
1 -3.99131 22.6554 -0.220455
3 -0.108135 22.7633 -0.083722
2 3.96553 23.0142 0.0689288
2 7.74309 22.4188 -0.150797
3 -4.02418 -22.7657 4.01222
2 0.0333684 -22.8083 3.90659
1 3.91501 -22.4127 3.83786
1 -11.9231 -19.7143 4.25249
1 -7.78718 -19.0589 3.87236
2 -4.08525 -19.1461 3.92332
2 -0.0523334 -19.0198 3.95887
1 3.63418 -18.8875 3.63124
2 7.47475 -18.6731 3.87667
1 11.2735 -19.0564 4.07052
2 -15.4573 -15.8031 3.86849
1 -11.547 -15.4372 4.12125
1 -7.81025 -15.4144 3.97057
3 -4.06569 -15.3863 3.8643
2 -0.162168 -15.4364 3.76232
1 3.75658 -15.204 3.85124
1 7.58752 -15.3594 3.96814
3 11.2694 -15.2196 3.76415
2 15.3608 -14.9256 3.52409
3 -19.1398 -11.8051 3.92883
3 -15.3536 -11.7698 4.01737
1 -11.4577 -11.5568 4.03201
3 -7.75099 -11.6472 3.94753
1 -4.27137 -11.3473 3.90223
1 -0.119189 -11.4126 3.85568
2 3.71006 -11.3146 3.78295
3 7.58833 -11.3193 3.9038
2 11.3302 -11.1015 3.64745
2 15.1673 -11.0257 3.65109
1 19.2081 -11.5007 3.58907
3 -19.3487 -7.78661 4.11116
2 -15.2005 -7.6648 3.86998
2 -11.5703 -7.71824 3.75808
2 -7.93483 -7.66694 4.05234
2 -3.99448 -7.78074 3.76718
1 -0.258681 -7.65768 3.63838
2 3.78099 -7.6879 3.75357
1 7.70762 -7.45331 3.71796
1 11.304 -7.40154 3.77428
2 15.3909 -7.50855 3.81121
3 19.2254 -7.39213 3.94153
3 -22.8799 -3.98041 4.12099
3 -19.1359 -4.15182 3.97201
3 -15.4072 -4.17148 3.81885
3 -11.4243 -4.02115 3.81843
2 -7.69045 -4.08329 4.04615
2 -3.94129 -3.96184 4.10094
1 0.0558418 -3.82857 3.76108
1 4.01147 -3.73158 3.83983
3 7.66605 -3.75659 3.69831
2 11.582 -3.7231 3.79932
2 15.445 -3.6659 3.8943
3 19.1347 -3.51335 3.90083
3 22.6433 -3.53621 3.86834
3 -22.7421 -0.172612 3.99851
2 -19.0844 -0.417252 4.15861
1 -15.3309 -0.278668 4.04867
3 -11.448 -0.173956 3.92165
2 -7.82011 -0.111298 3.91445
2 -3.9536 0.000710967 3.89161
1 0.0954094 0.00922714 3.91746
1 3.74234 0.193279 3.71654
3 7.67079 0.170363 3.73623
2 11.4585 0.078872 3.90679
2 15.6066 0.271709 3.78266
3 19.2806 0.144132 3.75684
2 22.9555 0.137785 3.81296
1 -22.9708 3.54586 3.92083
2 -19.1752 3.48979 4.02439
3 -15.3553 3.60247 3.79255
3 -11.3927 3.48116 3.97741
3 -7.81461 3.74806 3.96788
1 -3.9214 3.70595 3.78134
1 -0.0429743 3.78594 3.98667
2 3.90431 4.00601 3.91378
2 7.72043 4.03049 3.72661
3 11.5524 3.91807 3.67211
3 15.4315 4.01419 3.72163
1 19.2979 4.11914 3.68597
2 23.1084 3.91274 3.82098
2 -19.1116 7.37048 3.85913
1 -15.266 7.52358 3.73396
2 -11.5509 7.43121 4.04
1 -7.5705 7.58099 3.90474
3 -3.65298 7.70936 3.84896
1 0.136512 7.64288 3.72998
3 3.91125 7.76641 3.92249
2 7.87933 7.61563 3.84768
2 11.7056 7.77621 3.61025
3 15.5545 7.77068 3.60274
2 19.2945 7.87703 4.00878
2 -19.1404 11.8768 4.40447
2 -14.972 11.3904 3.93162
1 -11.3589 11.2538 3.82352
3 -7.54313 11.4221 4.01057
1 -3.6983 11.2944 3.86157
3 0.401221 11.4285 3.82276
2 4.06819 11.5485 3.90266
1 7.71334 11.5186 3.8542
2 11.7875 11.1279 3.7759
2 15.5274 11.6778 3.79327
3 19.1048 11.5693 3.68336
2 -15.1161 15.1273 4.18257
1 -11.1834 15.2883 3.8151
1 -7.49944 15.0931 3.85844
2 -3.73476 15.1237 3.87968
1 0.30994 15.4122 3.80805
1 3.83981 15.341 4.01918
2 7.6726 15.4613 3.91647
3 11.8744 15.3028 3.80361
2 15.3271 15.315 3.96849
1 -11.358 19.0702 3.83586
3 -7.50522 19.0751 3.82575
2 -3.86438 18.9394 4.09179
1 0.054526 19.2371 3.89333
1 4.04248 19.117 3.65881
1 7.7888 19.0647 3.87304
2 11.5778 19.0264 3.78527
3 -3.71346 22.678 4.12602
1 -0.128075 22.7886 3.83047
3 3.8303 22.7816 3.95914
2 -0.185122 -22.7246 7.69328
1 -11.5046 -19.2694 7.84164
2 -7.77398 -19.0888 7.66337
3 -3.97273 -19.2428 7.8158
2 -0.138615 -19.0836 7.62545
1 3.96291 -18.9719 7.60901
2 7.80437 -18.6615 8.048
2 11.256 -18.5741 7.58984
2 -15.3676 -15.555 8.01138
1 -11.5102 -15.5402 7.90571
1 -7.90651 -15.3286 7.79966
2 -4.30441 -15.3618 7.68315
3 -0.265185 -15.4536 7.6705
2 3.67605 -15.1469 7.73832
3 7.60673 -15.1961 7.76164
1 11.6577 -15.2883 7.66209
1 15.3527 -15.0819 7.77991
3 -19.1551 -11.5547 7.64137
2 -15.4063 -11.7567 7.76135
2 -11.7483 -11.5861 7.86737
2 -7.82443 -11.4695 7.81479
2 -4.0617 -11.5865 7.79515
2 -0.0184346 -11.7077 7.76143
3 3.76493 -11.2408 7.63177
2 7.60213 -11.3577 7.64553
1 11.467 -11.1982 7.6476
2 15.167 -11.1433 7.6919
2 19.0304 -11.533 7.668
3 -19.1889 -7.81552 7.66293
3 -15.406 -7.95491 7.65836
1 -11.574 -7.89044 7.79974
2 -7.80125 -7.90462 7.66998
2 -3.91445 -7.6078 7.75982
2 -0.163984 -7.7675 7.6577
1 3.95455 -7.6656 7.69003
2 7.67404 -7.44725 7.61975
2 11.4408 -7.45465 7.56498
1 15.3749 -7.39699 7.7274
2 20.857 -7.58416 6.36851
2 -19.265 -3.99198 7.84619
2 -15.3716 -3.99167 7.86326
2 -11.5676 -3.98571 7.83428
3 -7.80921 -4.04823 7.65241
1 -3.89386 -3.78342 7.74088
3 -0.0832324 -3.73786 7.65396
3 3.90361 -3.7796 7.49899
1 7.63254 -3.66401 7.59812
2 11.5152 -3.57959 7.60808
3 15.2357 -3.71376 7.78147
1 19.343 -3.6227 7.59404
3 -22.7351 -0.258597 7.53532
1 -19.1368 -0.231913 7.77555
2 -15.3481 -0.137937 7.77425
3 -11.4617 -0.143144 7.66221
1 -7.83631 0.0540251 8.00118
2 -3.8809 -0.175297 7.63248
3 -0.156452 0.122652 7.58225
2 3.80525 0.286797 7.53925
1 7.60685 0.162374 7.81462
1 11.4201 -0.0174152 7.79071
2 15.2795 0.0624669 7.709
2 19.1233 0.203841 7.45982
3 22.5819 0.400273 7.57694
2 -19.3589 3.51632 7.65225
1 -15.479 3.98467 7.80716
2 -11.4409 3.69703 7.66801
2 -7.91102 3.59452 7.75558
3 -3.78984 3.67525 7.78949
1 -0.104703 3.76143 7.71224
2 3.69889 3.71671 7.66489
3 7.62297 3.92019 7.66192
2 11.3493 4.0344 7.61651
3 15.4631 4.03275 7.59143
2 18.9187 3.8711 7.5397
2 -19.4883 7.57837 7.63406
3 -15.2925 7.30911 7.71695
2 -11.4955 7.66977 7.6209
1 -7.59386 7.4199 7.84284
2 -3.92905 7.3801 7.66776
1 -0.0293167 7.62259 7.64038
2 3.8956 7.63544 7.57603
2 7.69782 7.60681 7.67521
1 11.4764 7.58166 7.69248
3 15.1382 7.7818 7.39789
2 19.1687 7.62234 7.65492
2 -19.0402 11.0935 7.45888
2 -15.1768 11.5166 7.53765
1 -11.5131 11.3532 7.73469
2 -7.74851 11.0855 7.7914
1 -3.81968 11.3633 7.67619
1 0.0356025 11.5272 7.80658
3 3.92983 11.7083 7.77393
2 7.66915 11.4723 7.76775
3 11.5545 11.4864 7.49433
3 15.3192 11.383 7.61858
3 18.9797 11.4618 7.87802
2 -15.332 15.7484 8.33887
3 -11.1884 15.2116 7.58174
3 -7.59746 15.1807 7.82545
2 -3.9132 15.2622 7.7109
3 0.0735566 15.1539 7.76469
2 3.85854 15.2718 7.69125
2 7.82965 15.2081 7.73436
2 11.4396 15.345 7.81433
1 15.2715 15.3474 7.79041
3 -11.3415 18.7697 7.89905
1 -7.54112 18.9881 7.79086
2 -3.74794 19.0306 7.90856
1 0.0481616 19.2569 7.78897
3 3.99293 19.2212 7.54997
2 7.70568 18.9726 7.79272
2 11.4463 19.0558 7.79264
1 -0.000492451 22.6146 7.60129
3 -7.78925 -19.1092 11.5305
3 -3.92293 -18.9224 11.5441
1 -0.0906794 -19.5041 11.6707
3 3.81789 -18.9435 11.6595
1 7.51407 -18.8213 11.3208
3 -11.7527 -15.5232 11.7551
1 -7.6579 -15.3802 11.6619
2 -3.91281 -15.3154 11.4855
1 0.0328747 -15.414 11.5392
3 3.87076 -15.1667 11.4875
1 7.64393 -15.0331 11.3975
2 11.3684 -15.2328 11.4679
2 -15.6014 -11.7126 11.5549
2 -11.9468 -11.6853 11.7809
2 -7.90818 -11.6323 11.6207
2 -4.0364 -11.5353 11.4449
2 0.0882059 -11.5059 11.4985
3 3.73409 -11.4248 11.5339
3 7.57947 -11.4461 11.4727
1 11.4624 -11.3838 11.4521
2 15.5815 -11.2877 11.4661
3 -19.0977 -8.0721 11.6489
1 -15.3707 -7.70699 11.4757
2 -11.7148 -7.69629 11.774
2 -7.97611 -7.56419 11.424
1 -3.80502 -7.66865 11.4513
3 0.0885509 -7.52111 11.5288
1 3.88344 -7.50964 11.4222
1 7.50691 -7.60608 11.5171
1 11.5303 -7.66383 11.4387
2 15.3678 -7.50401 11.6639
1 19.3575 -7.76453 11.1884
1 -19.2704 -4.25387 11.6799
2 -15.427 -3.94369 11.649
3 -11.546 -3.74958 11.5167
1 -7.78245 -3.70204 11.5265
3 -3.78303 -3.78665 11.3243
1 -0.0988672 -3.61052 11.5512
2 3.66131 -3.7664 11.4187
2 7.58467 -3.87943 11.4278
3 11.52 -3.7389 11.4837
1 15.1621 -3.78403 11.5681
1 19.6365 -3.12769 11.6389
3 -19.238 -0.296182 11.3795
1 -15.6891 -0.193534 11.5044
1 -11.63 -0.225354 11.5686
2 -7.73887 -0.132226 11.5209
1 -4.00515 0.123849 11.4415
3 -0.0847495 0.0119668 11.3899
2 3.79104 0.25897 11.4152
2 7.67512 0.0406793 11.5215
3 11.2275 0.242778 11.5069
3 15.2038 0.111469 11.5243
2 19.0646 0.0504558 11.5852
1 -20.1066 3.89248 12.0932
2 -15.887 3.66706 11.6634
1 -11.5897 3.78186 11.5233
3 -7.79824 3.89115 11.6333
3 -3.89977 3.84179 11.5609
3 -0.0404598 3.78602 11.5395
1 3.66715 3.80177 11.3781
2 7.67816 3.91246 11.5134
2 11.5664 4.02467 11.4551
2 15.2043 3.92188 11.6007
3 18.9251 4.21434 11.2303
1 -19.2537 8.17474 11.5078
2 -15.3551 7.5949 11.5196
2 -11.5853 7.53023 11.5665
2 -7.72522 7.41218 11.5956
3 -4.00094 7.60688 11.6492
2 -0.0327465 7.77231 11.6081
3 3.74661 7.57359 11.4421
1 7.48115 7.62341 11.5643
3 11.4287 7.66446 11.5015
1 15.2144 7.79366 11.3217
2 18.9893 7.74501 11.2251
1 -15.4584 11.6204 11.3195
3 -11.568 11.4409 11.6029
2 -7.85366 11.2499 11.8122
1 -3.85026 11.3401 11.5094
2 0.0356858 11.2988 11.4207
1 3.94323 11.4488 11.5058
1 7.49146 11.4514 11.564
3 11.4382 11.4174 11.5436
3 15.0513 11.4906 11.4775
2 -11.5566 15.1958 11.3466
1 -7.83388 15.2556 11.7064
1 -3.90278 15.6401 11.7174
1 -0.19935 15.2769 11.6562
1 3.76037 15.1371 11.523
2 7.70445 15.3017 11.6058
3 11.6022 15.0768 11.5489
1 -7.6229 18.935 11.7327
3 -4.03334 18.9151 11.9852
1 0.151995 18.9991 11.6787
2 3.77793 18.8499 11.5723
1 7.79296 18.9549 11.8806
3 -7.98627 -15.4448 15.1655
2 -4.07504 -15.4018 15.5535
2 0.0126579 -15.1175 15.14
2 3.91394 -15.323 15.2398
3 7.72335 -15.0989 14.9838
2 -11.8522 -11.6485 15.3909
1 -7.94024 -11.5025 15.4465
2 -4.12729 -11.7298 15.4613
3 -0.136506 -11.5741 15.3658
2 3.65642 -11.5138 15.2981
2 7.47569 -11.2709 15.2489
1 11.495 -11.6604 15.3177
1 -15.8031 -8.10884 15.4129
3 -11.4642 -7.6013 15.114
3 -7.69881 -7.59249 15.3518
1 -3.79985 -7.66889 15.1572
1 -0.0737612 -7.73033 15.1754
2 3.66772 -7.6222 15.2011
3 7.53001 -7.8112 15.143
3 11.5495 -7.68696 15.417
3 15.3723 -7.66114 15.0635
2 -15.5226 -4.10307 15.6593
2 -11.6284 -3.77883 15.4217
2 -7.89389 -3.82308 15.0958
1 -3.95735 -3.85844 15.1836
1 -0.0608039 -3.84246 15.3063
2 3.57503 -3.78329 15.2479
2 7.5864 -3.76722 15.2859
2 11.3109 -3.65686 15.381
1 15.2572 -3.93955 15.6386
1 -15.6098 -0.0593168 15.4187
2 -11.7445 -0.0397637 15.2561
3 -7.76075 -0.203256 15.0506
2 -3.96519 -0.0953343 15.0976
3 0.0342021 0.246172 15.2557
3 3.74119 0.169371 15.3788
1 7.59715 -0.0192659 15.5164
2 11.5899 -0.0597507 15.4478
2 14.9268 0.056666 15.2926
1 -15.7666 3.94727 15.3864
2 -11.72 3.80242 15.2249
1 -7.77262 3.79048 15.3487
3 -4.11107 3.85074 15.1961
3 -0.19208 3.85684 15.363
2 3.78305 3.75078 15.3383
2 7.56231 3.96383 15.3806
1 11.2923 3.80022 15.2792
1 15.3337 3.96504 15.3232
2 -15.502 7.82604 15.1636
2 -11.7593 7.69098 15.2187
3 -7.81315 7.41037 15.4765
3 -4.11531 7.74058 15.2839
3 -0.148134 7.9426 15.3381
3 3.71528 7.65201 15.2988
2 7.44838 7.50859 15.1692
2 11.3207 7.89747 15.3356
1 15.2638 7.75144 15.2288
2 -11.7824 11.2737 15.3579
2 -7.76575 11.3169 15.2209
3 -3.94598 11.571 15.5236
2 -0.0723342 11.2945 15.3074
3 3.83944 11.387 15.2688
1 7.59921 11.4854 15.1536
1 11.6835 11.7681 15.5229
2 -8.35024 15.3812 15.5508
2 -4.02362 15.3708 15.611
3 -0.131083 15.2365 15.3452
2 3.77689 15.1615 15.2806
2 7.74414 15.3371 15.2868
2 -7.82959 -11.7316 19.0747
3 -3.90955 -11.6828 19.3001
2 -0.0711952 -11.4501 19.3228
1 4.17079 -11.7286 19.3673
2 7.82404 -11.5085 18.7223
3 -11.428 -8.22093 18.9533
2 -7.67732 -7.83314 19.2924
1 -3.89624 -7.79806 19.1874
2 -0.0671992 -7.91895 19.0637
2 3.78558 -7.62545 18.9579
3 7.46243 -7.38958 19.0832
1 11.3698 -7.61198 19.1163
1 -11.7623 -4.19502 19.5908
2 -7.76591 -4.13014 19.1287
3 -4.0869 -3.66854 18.9856
1 -0.189006 -3.73533 18.9857
2 3.6324 -3.62795 19.0081
2 7.41428 -3.78142 19.1348
3 11.1861 -3.65011 19.1449
1 -11.838 0.210046 20.286
1 -7.58133 0.0824183 18.9897
1 -4.11841 0.0229494 19.1724
2 -0.170309 0.105642 19.1992
2 3.6678 0.118781 19.1452
3 7.37161 0.165902 19.1634
1 11.4701 1.12512 20.1629
2 -11.7763 5.23408 20.075
3 -7.75486 3.60092 19.1326
1 -3.93241 3.85508 19.3174
2 -0.197707 3.92435 19.0052
1 3.83143 3.82754 18.9812
3 7.63473 3.90235 19.0162
2 11.4166 5.83592 20.5581
2 -12.1584 7.57763 19.0678
2 -7.95316 7.60784 18.8379
1 -3.98763 7.67313 19.1207
1 -0.0365926 7.72942 19.3578
3 3.82381 7.75538 19.0028
3 7.36259 7.77158 19.0129
2 11.6863 7.85735 18.7277
3 -7.88385 11.1884 19.0649
1 -4.12175 11.2084 19.0966
1 -0.00714616 11.5489 19.0206
2 3.74194 11.5242 18.9767
2 7.94182 11.3282 19.0731
3 -0.0625945 -7.67667 22.3443
2 -3.8383 -4.01984 22.9765
2 -0.249718 -3.90898 22.8044
1 3.61991 -3.71595 22.7047
3 -7.29408 -0.097933 22.8873
2 -3.93985 0.127808 22.832
2 -0.0648516 0.162167 22.7801
2 3.33197 -0.152643 22.8289
1 6.98472 0.36805 22.7661
2 -4.059 3.88717 23.1535
3 -0.316678 4.04442 22.7372
1 3.29358 3.68332 23.054
1 -0.00989844 7.54372 22.4573
2 -5.66228 -5.67475 -22.8181
3 -1.93673 -5.66828 -22.6914
2 1.78916 -5.5865 -22.804
2 5.79896 -5.77409 -22.8135
2 -5.60534 -1.98905 -22.6771
2 -1.84484 -1.82371 -22.5485
3 1.70937 -1.97847 -22.8602
2 5.51174 -1.71482 -22.9881
2 -5.65425 1.93431 -22.7145
1 -1.99408 1.93773 -22.6853
2 2.1555 1.94618 -22.9715
2 5.49066 1.80435 -22.6646
2 -5.90687 5.5202 -22.4705
2 -1.88013 6.12518 -22.6852
2 1.89715 5.72042 -22.7415
2 5.67455 6.0351 -22.7208
2 -5.8212 -13.371 -18.9044
3 -1.88056 -13.382 -19.175
1 2.17976 -13.454 -19.0319
2 5.99818 -13.4176 -19.0175
1 -9.98795 -9.77961 -19.0828
1 -5.79441 -10.0914 -19.1798
1 -1.80212 -9.34477 -19.1045
2 1.90734 -9.74055 -19.2212
3 5.7373 -9.6488 -19.1739
3 9.71868 -9.58203 -19.1116
2 -13.601 -6.27583 -18.9751
2 -9.72482 -5.75937 -19.2096
3 -5.79135 -5.71227 -19.0761
1 -1.94866 -5.84778 -19.15
3 2.01266 -5.65829 -19.1792
3 5.7562 -5.86989 -19.4222
2 9.53645 -5.73987 -19.0593
2 13.3468 -5.8233 -19.1877
1 -13.3723 -2.03522 -18.925