LAMMPS DATA FOR MEAM SIMULATION

   1289   atoms
      2   atom types

  -24.48   24.61   xlo xhi
  -24.48   24.61   ylo yhi
  -24.48   24.61   zlo zhi

 Atoms

     1   2    -3.97697    -3.54783   -13.79110
     2   2    -0.02089    -3.53345   -13.79080
     3   2     3.43980    -3.37532   -13.92810
     4   2    -3.39540    -0.14215   -13.76920
     5   2     0.05336     0.16018   -13.79150
     6   2     3.22413     0.05462   -13.95750
     7   2    -3.79894     3.26578   -13.79040
     8   2    -0.12304     3.45530   -13.90950
     9   2     3.83504     3.50184   -13.74360
    10   2    -0.15873   -10.13860   -10.45060
    11   2    -7.44415    -7.17256   -10.35520
    12   2    -3.85236    -7.18644   -10.86930
    13   1    -0.01077    -7.00837   -10.66490
    14   2     3.86274    -7.35839   -11.18630
    15   2     7.77660    -6.47992   -10.72210
    16   2    -7.37234    -3.66596   -10.51430
    17   1    -3.66645    -3.49627   -10.44720
    18   1     0.08306    -3.41424   -10.51380
    19   1     3.45907    -3.67766   -10.53090
    20   2     7.22748    -4.17375   -11.42760
    21   2   -10.60630     0.03473   -10.38180
    22   1    -7.19997     0.12968   -10.62900
    23   1    -3.48779     0.05902   -10.54710
    24   1     0.03000    -0.06844   -10.55180
    25   1     3.72234    -0.02806   -10.47580
    26   2     8.30987    -0.30219   -11.61300
    27   2    10.38540    -0.32017   -10.09600
    28   2    -7.40633     3.69078   -10.79180
    29   1    -3.56743     3.56310   -10.57820
    30   1     0.10998     3.67455   -10.53320
    31   1     3.76907     3.48349   -10.40090
    32   2     7.52446     3.73427   -10.76550
    33   2    -7.51762     7.10451   -10.54260
    34   2    -4.24232     7.23038   -11.09910
    35   2    -0.16836     7.52335   -11.71100
    36   2     3.60093     7.04573   -11.11630
    37   2     7.59767     6.99637   -10.84350
    38   2    -0.12030     9.59818   -10.54030
    39   2    -7.33696   -10.19640    -7.28617
    40   2    -3.94514   -10.48640    -7.52294
    41   2    -0.03231   -11.25160    -8.42306
    42   2     4.00824   -10.70350    -8.25860
    43   2     7.73447    -9.70120    -7.45757
    44   2   -10.77780    -7.19673    -7.20822
    45   1    -7.07359    -6.98790    -7.14481
    46   1    -3.49069    -6.86410    -7.13241
    47   1    -0.13077    -7.07595    -7.09921
    48   1     3.38892    -6.99422    -7.04925
    49   1     6.77018    -7.09452    -7.00222
    50   2    10.80160    -6.25219    -7.40675
    51   2   -10.80020    -3.52578    -7.33707
    52   1    -7.22766    -3.50678    -7.01366
    53   1    -3.57938    -3.57292    -7.07241
    54   1    -0.11106    -3.36293    -6.98032
    55   1     3.45677    -3.57319    -6.94481
    56   1     6.91360    -3.67020    -7.01708
    57   2    11.17800    -3.95489    -7.12228
    58   1   -10.74210     0.02146    -7.17306
    59   1    -7.10028     0.07950    -7.03634
    60   1    -3.48924     0.02751    -7.05601
    61   1     0.03591     0.12664    -6.96711
    62   1     3.63230     0.04438    -6.99019
    63   1     7.08316    -0.05760    -7.03905
    64   2    11.72190    -0.22199    -8.04020
    65   2   -10.81870     3.78342    -7.19642
    66   1    -6.89739     3.47453    -7.05311
    67   1    -3.54285     3.55776    -7.15713
    68   1     0.07062     3.51263    -6.91802
    69   1     3.60856     3.43177    -6.72342
    70   1     7.07670     3.43426    -6.91825
    71   2    10.78710     3.52896    -7.44121
    72   2   -11.19460     7.35067    -7.81230
    73   1    -7.08788     6.81236    -6.99074
    74   1    -3.47005     7.16273    -7.14797
    75   1     0.09611     7.01038    -6.95833
    76   1     3.66261     7.09819    -6.90070
    77   1     7.03619     6.98110    -7.08303
    78   2    10.59430     7.62223    -7.77987
    79   2    -8.52164    11.01930    -8.29976
    80   2    -4.20880    10.54220    -7.65012
    81   2    -0.11513    11.17110    -8.61413
    82   2     3.80205    10.41120    -8.09952
    83   2     7.54679    10.72090    -8.38389
    84   2    -3.62503   -13.10590    -3.59573
    85   2     0.16385   -13.00920    -4.03253
    86   2     4.22964   -12.84740    -3.93058
    87   2    -7.27484   -10.45390    -3.88983
    88   1    -3.49434   -10.53890    -3.64098
    89   1    -0.07263   -10.63260    -3.35972
    90   1     3.46421   -10.63230    -3.48949
    91   2     8.13188   -10.34270    -3.76284
    92   2   -10.94560    -7.00087    -3.78510
    93   1    -7.16974    -6.96978    -3.60662
    94   1    -3.69433    -6.98933    -3.55582
    95   1    -0.11180    -7.07737    -3.42079
    96   1     3.29655    -7.09858    -3.55418
    97   1     6.89951    -7.13042    -3.56470
    98   2    11.23920    -7.16665    -3.55773
    99   2   -13.83530    -3.27931    -3.72983
   100   1   -10.52510    -3.42888    -3.61830
   101   1    -7.14487    -3.51852    -3.57375
   102   1    -3.53426    -3.47771    -3.56087
   103   1    -0.05796    -3.46796    -3.37023
   104   1     3.43967    -3.58395    -3.49309
   105   1     6.99107    -3.59674    -3.46399
   106   1    10.45500    -3.76488    -3.34352
   107   2    13.93340    -3.45996    -3.31171
   108   2   -13.82680     0.10275    -3.31359
   109   1   -10.67450     0.07423    -3.59793
   110   1    -7.06707     0.06102    -3.47042
   111   1    -3.52360     0.11206    -3.47823
   112   1     0.08779    -0.01325    -3.51018
   113   1     3.52397     0.02531    -3.46754
   114   1     6.96750    -0.11856    -3.42780
   115   1    10.50130    -0.17664    -3.56219
   116   2    13.68840     0.05253    -3.45964
   117   2   -13.63940     3.97299    -3.44930
   118   1   -10.57730     3.47510    -3.44203
   119   1    -6.97067     3.40947    -3.36774
   120   1    -3.49172     3.47636    -3.48195
   121   1     0.06553     3.55510    -3.45743
   122   1     3.69479     3.53026    -3.42809
   123   1     7.15466     3.58189    -3.39591
   124   1    10.57710     3.39507    -3.51076
   125   2    12.85760     3.92338    -3.48098
   126   2   -10.76070     7.40431    -3.77310
   127   1    -6.85725     7.14410    -3.59109
   128   1    -3.47739     6.91653    -3.51620
   129   1     0.07581     7.00445    -3.45468
   130   1     3.77011     6.96049    -3.52027
   131   1     7.23026     7.17082    -3.53294
   132   2    10.76430     7.83695    -4.24770
   133   2    -7.54337    10.75070    -4.14844
   134   1    -3.20298    10.55980    -3.50473
   135   1     0.28591    10.60560    -3.49957
   136   1     3.70112    10.67510    -3.57208
   137   2     7.36094    11.01580    -4.46038
   138   2    -3.57515    13.03020    -3.95405
   139   2    -0.42728    12.71950    -4.10974
   140   2     3.38885    13.07250    -4.52794
   141   2    -3.48492   -12.97670     1.03297
   142   2    -0.47302   -14.48160    -0.63089
   143   2     4.45525   -12.86160    -0.17876
   144   2   -10.79850   -10.00360    -0.09083
   145   1    -7.17448   -10.52070    -0.20364
   146   1    -3.56081   -10.72200     0.04841
   147   1    -0.07845   -10.63310    -0.17042
   148   1     3.44971   -10.57650     0.10269
   149   2     8.43043   -11.09680     0.22929
   150   2    10.35390    -9.82132     0.26003
   151   2   -12.01320    -7.85467    -0.09974
   152   1    -7.17337    -7.02253    -0.00287
   153   1    -3.63578    -6.94247    -0.01105
   154   1     0.04988    -7.03703    -0.07771
   155   1     3.48788    -7.07719     0.10115
   156   1     6.87981    -6.91225     0.08010
   157   2    11.92820    -7.89135     0.22978
   158   2   -13.80110    -3.33849    -0.12732
   159   1   -10.54490    -3.51044     0.02821
   160   1    -7.22230    -3.58645     0.06824
   161   1    -3.54137    -3.46215    -0.01573
   162   1    -0.03094    -3.52782    -0.03306
   163   1     3.37469    -3.48759     0.02676
   164   1     6.85673    -3.50232     0.05550
   165   1    10.56710    -3.76187     0.19609
   166   2    13.87060    -3.56329     0.05283
   167   2   -13.86330     0.19490     0.21589
   168   1   -10.53540     0.06727     0.16290
   169   1    -6.96516    -0.01613     0.14333
   170   1    -3.44219    -0.01804     0.08979
   171   1     0.10569     0.04825     0.12354
   172   1     3.59270    -0.06213     0.03224
   173   1     7.03309    -0.11634     0.11753
   174   1    10.39520    -0.02802    -0.07919
   175   2    14.44630     0.46609    -1.19396
   176   2   -14.11130     3.29867     0.13559
   177   1   -10.39710     3.72480     0.09113
   178   1    -6.97767     3.49035     0.20264
   179   1    -3.40010     3.65347     0.17247
   180   1     0.19724     3.59512     0.08803
   181   1     3.65408     3.46743    -0.01504
   182   1     7.19843     3.60255     0.09479
   183   1    10.61530     3.49303     0.03353
   184   2    14.26830     2.55954     0.05200
   185   2   -11.80870     8.28384     0.03482
   186   1    -6.89754     7.16083    -0.08902
   187   1    -3.36501     6.94035     0.11743
   188   1     0.11463     6.99776     0.12693
   189   1     3.64448     7.07017    -0.02684
   190   1     7.07605     6.97984     0.18169
   191   2    11.04570     8.47461    -0.15670
   192   2   -10.21080    10.19980    -0.00274
   193   2    -8.07338    11.44020    -0.03281
   194   1    -3.38253    10.49040    -0.02767
   195   1     0.08199    10.47140     0.15894
   196   1     3.68698    10.34160     0.08395
   197   2     7.67654    11.83170    -0.50037
   198   2     9.72748    10.55780    -0.37839
   199   2    -3.64796    13.04810    -0.04425
   200   2     1.19046    14.09920    -0.82169
   201   2     3.45790    13.70990    -0.49982
   202   2    -3.61426   -13.00660     3.30879
   203   1     1.02354   -12.73670     3.19853
   204   2     3.64791   -13.11960     3.69919
   205   2    -8.02701   -10.70430     3.63151
   206   1    -3.76674   -10.68350     3.29425
   207   1    -0.12082   -10.64150     3.36575
   208   1     3.51907   -10.55740     3.61443
   209   2     7.70011   -10.72170     4.42270
   210   2   -10.89990    -6.98959     3.77020
   211   1    -7.07627    -7.11232     3.56254
   212   1    -3.63864    -7.15058     3.38529
   213   1    -0.02405    -6.94280     3.44402
   214   1     3.43195    -7.08262     3.53698
   215   1     6.92468    -6.98962     3.79762
   216   2    10.66670    -7.04889     3.98668
   217   2   -13.87270    -3.54152     3.85811
   218   1   -10.73980    -3.39745     3.68672
   219   1    -7.30438    -3.59226     3.62513
   220   1    -3.64304    -3.54634     3.54048
   221   1    -0.13560    -3.50863     3.53570
   222   1     3.49213    -3.60629     3.62634
   223   1     7.00815    -3.66859     3.59109
   224   1    10.50030    -3.71471     3.82388
   225   2    13.70120    -3.51802     3.90307
   226   2   -14.35880    -0.03315     2.78447
   227   1   -10.65620    -0.05616     3.84309
   228   1    -7.20247    -0.12078     3.72011
   229   1    -3.55637    -0.03159     3.54209
   230   1     0.00493     0.05998     3.55151
   231   1     3.48782    -0.08274     3.60050
   232   1     7.04636    -0.17913     3.53458
   233   1    10.64960    -0.20581     3.75819
   234   2    13.14100     0.26515     3.68015
   235   2   -13.20290     3.55423     3.65682
   236   1   -10.49650     3.60211     3.65466
   237   1    -6.94652     3.52087     3.51285
   238   1    -3.47925     3.49837     3.57540
   239   1     0.16867     3.57301     3.62564
   240   1     3.63367     3.43857     3.58187
   241   1     7.05836     3.35411     3.68297
   242   1    10.50670     3.35976     3.78242
   243   2    12.57630     4.17669     3.31482
   244   1   -10.41100     7.07972     3.77314
   245   1    -6.84844     7.02965     3.59314
   246   1    -3.30342     6.99983     3.67114
   247   1     0.31666     7.03641     3.58995
   248   1     3.66775     7.00288     3.66903
   249   1     7.09644     6.99923     3.67709
   250   2     9.99065     8.14177     3.59967
   251   1    -7.03448    10.53430     3.61088
   252   1    -3.35353    10.44420     3.70963
   253   1     0.13199    10.58540     3.61599
   254   1     3.70614    10.53750     3.76077
   255   2     6.98403    11.82910     3.48471
   256   2    -3.56287    13.90370     3.71072
   257   2     0.51670    13.97950     3.49521
   258   2     2.91753    14.13460     3.58489
   259   2    -7.87963   -10.51490     7.15493
   260   2    -3.92601   -10.87840     7.60371
   261   2    -0.06385   -11.36750     8.09207
   262   2     3.91616   -10.90460     7.71567
   263   2     7.88079   -10.41960     7.23709
   264   2   -11.82270    -8.17663     8.00986
   265   1    -6.96057    -7.08607     7.01584
   266   1    -3.69366    -7.10061     6.93608
   267   1    -0.15271    -6.99968     7.02809
   268   1     3.36624    -7.17210     7.05841
   269   1     6.78357    -7.16108     7.16359
   270   2    11.68070    -8.05944     8.41383
   271   2   -10.91570    -3.83507     7.23478
   272   1    -7.04172    -3.62282     7.19642
   273   1    -3.60450    -3.52945     7.06500
   274   1    -0.01121    -3.58034     6.96866
   275   1     3.45817    -3.59133     7.09218
   276   1     6.86372    -3.67828     7.12450
   277   2    10.86810    -3.67776     7.44585
   278   2   -11.95630     0.07006     8.35368
   279   1    -7.08712    -0.01419     7.01647
   280   1    -3.48898    -0.09856     7.10356
   281   1     0.02887    -0.05846     7.07210
   282   1     3.51475    -0.05664     7.02804
   283   1     7.03523    -0.29905     7.04350
   284   2    11.53790     0.45083     8.06926
   285   2   -10.64990     3.90753     7.40810
   286   1    -6.96190     3.46647     7.05691
   287   1    -3.44278     3.39465     7.05997
   288   1     0.05539     3.35846     7.05000
   289   1     3.52980     3.51502     7.09260
   290   1     7.07314     3.28692     7.17968
   291   2    11.21660     4.34481     7.91747
   292   2   -10.73020     7.72313     7.43724
   293   1    -6.88115     7.01840     7.06863
   294   1    -3.41619     7.04390     7.15996
   295   1     0.18370     7.01832     7.17680
   296   1     3.74612     6.92721     7.16712
   297   1     7.14085     6.69197     7.12669
   298   2     9.82459     7.99919     7.30513
   299   2    -7.24578    10.76120     7.06037
   300   1    -3.41240    10.58450     7.16800
   301   1     0.21249    10.47260     7.21137
   302   1     4.01669    10.62550     6.79505
   303   2     6.24863    10.97730     7.31220
   304   2     0.08394   -10.11460    10.14620
   305   2    -7.90705    -7.49782    10.52890
   306   2    -4.07555    -7.65800    10.94860
   307   2    -0.06446    -8.13448    11.57330
   308   2     3.92349    -7.71347    10.98020
   309   2     7.70105    -7.25376    10.48840
   310   2    -7.80502    -4.08967    10.80230
   311   1    -3.53850    -3.64730    10.61610
   312   1    -0.14481    -3.74108    10.66090
   313   1     3.43580    -3.75492    10.63590
   314   2     7.96848    -3.94085    10.92030
   315   2   -10.32940     0.06517    10.29660
   316   2    -8.25542     0.02420    11.45920
   317   1    -3.43665    -0.17902    10.49840
   318   1     0.06865    -0.11351    10.57690
   319   1     3.46226    -0.02516    10.63490
   320   2     8.26115     0.22807    11.15140
   321   2    10.41020     0.21237     9.95835
   322   2    -7.58956     3.86726    10.95320
   323   1    -3.45433     3.25413    10.45210
   324   1     0.07632     3.15563    10.60980
   325   1     3.70300     3.29697    10.46220
   326   2     7.75691     4.14241    11.17860
   327   2    -7.20539     7.78141    10.28800
   328   2    -3.63071     7.74193    10.74460
   329   2     0.29057     7.79036    11.43100
   330   2     4.53943     7.44983    11.27860
   331   2     6.79690     7.87772    10.57130
   332   2     0.31189    10.02470    10.71420
   333   2    -4.02559    -3.83115    13.24850
   334   2    -0.13711    -3.72109    13.15630
   335   2     3.81256    -3.36490    12.96740
   336   2    -3.99658    -0.22786    13.20670
   337   2     1.69377    -0.25571    14.60970
   338   2     3.72421    -0.60691    13.15090
   339   2    -3.29804     3.76530    12.80360
   340   2    -1.90624    -0.29006    14.44170
   341   2     3.38694     3.42582    12.81950
   342   2    -1.95218    -2.31348   -13.43610
   343   2     1.60954    -1.73671   -13.92770
   344   2    -1.86451     1.72789   -13.87590
   345   2     1.77084     1.97541   -13.66250
   346   2    -5.75252    -8.60889   -10.68400
   347   2    -2.02011    -8.67145   -10.69260
   348   2     1.81505    -8.65196   -10.70650
   349   2     6.09086    -8.09121   -10.71740
   350   2    -8.96923    -5.49018   -10.25200
   351   2    -5.70913    -5.67411   -10.97300
   352   1    -1.85916    -5.02589   -10.63060
   353   1     1.75131    -5.38890   -10.57240
   354   2     5.64872    -5.91280   -11.47540
   355   2     9.17841    -4.69788   -10.59720
   356   2    -8.90698    -1.66210   -10.49400
   357   1    -5.32724    -1.67200   -10.43850
   358   1    -1.80084    -1.85290   -10.42050
   359   1     1.84221    -1.65094   -10.34570
   360   1     5.10761    -1.96911   -10.37060
   361   2     8.82857    -2.16943   -10.50990
   362   2    -8.86783     1.87164   -10.59780
   363   1    -5.33177     1.74563   -10.47760
   364   1    -1.66257     1.84864   -10.38360
   365   1     1.78894     1.72920   -10.41260
   366   1     5.43292     1.78103   -10.53260
   367   2     8.92643     1.58843   -10.41790
   368   2    -8.96348     5.44356   -10.51700
   369   2    -5.83817     5.52784   -10.81480
   370   1    -1.57618     5.36728   -10.43750
   371   1     1.99906     5.36115   -10.38740
   372   2     5.55237     5.48832   -10.86510
   373   2     9.03552     5.36526   -10.49090
   374   2    -5.97998     8.73137   -10.36770
   375   2    -2.29950     8.56548   -10.74160
   376   2     1.75592     8.31012   -10.87600
   377   2     5.70379     8.14186   -10.77550
   378   2    -2.07821   -11.84920    -7.15473
   379   2     2.05157   -11.62090    -7.29343
   380   2    -9.39856    -9.20833    -7.62755
   381   1    -5.35037    -8.60478    -7.22775
   382   1    -2.00126    -8.71081    -7.00912
   383   1     1.61913    -8.72000    -6.97929
   384   1     4.97692    -8.76818    -7.11600
   385   2     9.56066    -8.37741    -7.59196
   386   1    -8.95737    -5.03794    -7.04628
   387   1    -5.32189    -5.30406    -7.07853
   388   1    -1.76359    -5.23161    -7.05839
   389   1     1.63372    -5.27748    -6.97123
   390   1     5.16217    -5.37520    -7.15139
   391   1     8.47139    -5.40594    -7.01679
   392   2   -12.26180    -1.62507    -6.91015
   393   1    -8.86643    -1.72889    -7.15269
   394   1    -5.45706    -1.72425    -7.04258
   395   1    -1.83632    -1.71633    -7.04357
   396   1     1.75311    -1.71051    -6.98656
   397   1     5.21742    -1.86977    -7.01420
   398   1     8.81242    -1.84725    -6.95342
   399   2    12.27620    -2.06257    -6.80656
   400   2   -12.20770     1.94722    -6.89432
   401   1    -8.76807     1.89087    -6.97009
   402   1    -5.16731     1.77282    -7.08091
   403   1    -1.67217     1.87618    -7.08687
   404   1     1.90851     1.74637    -6.89370
   405   1     5.35633     1.64080    -6.86978
   406   1     8.79192     1.73874    -7.06677
   407   2    12.16010     1.90310    -6.81239
   408   1    -8.92872     5.21759    -7.00185
   409   1    -5.18905     5.34323    -7.17489
   410   1    -1.70773     5.36119    -6.92375
   411   1     1.91713     5.13717    -6.83921
   412   1     5.42252     5.28707    -7.03812
   413   1     8.65904     5.13932    -7.06753
   414   2    -9.71536     9.16787    -7.94912
   415   1    -5.42673     8.52639    -7.02997
   416   1    -1.69411     8.75983    -6.92529
   417   1     1.93213     8.85445    -7.06144
   418   1     5.30382     8.75923    -7.22362
   419   2     9.44055     9.43009    -8.13733
   420   2    -2.19603    11.53970    -7.36413
   421   2     1.84039    11.44480    -7.50425
   422   2    -5.58857   -11.96710    -3.88776
   423   2    -1.82758   -13.00600    -5.06348
   424   2     2.08174   -12.68030    -5.15041
   425   2     5.80104   -11.22440    -4.42942
   426   1    -9.07578    -8.64859    -3.68867
   427   1    -5.34036    -8.80876    -3.56454
   428   1    -1.87417    -8.77515    -3.54262
   429   1     1.68991    -8.88935    -3.57762
   430   1     5.15096    -8.92226    -3.56354
   431   2     9.92108    -8.99788    -3.64164
   432   2   -12.30090    -5.13463    -3.79256
   433   1    -8.91210    -5.22808    -3.53477
   434   1    -5.32660    -5.18846    -3.50775
   435   1    -1.91435    -5.29404    -3.50372
   436   1     1.63097    -5.32182    -3.46507
   437   1     5.18755    -5.33532    -3.45386
   438   1     8.66625    -5.44778    -3.63079
   439   2    12.60950    -5.34011    -3.38581
   440   1   -12.22840    -1.61247    -3.68847
   441   1    -8.81048    -1.59545    -3.47866
   442   1    -5.27995    -1.73802    -3.48664
   443   1    -1.81252    -1.60499    -3.45090
   444   1     1.73965    -1.74908    -3.47117
   445   1     5.15151    -1.81043    -3.50383
   446   1     8.74142    -1.96579    -3.52704
   447   1    12.20180    -1.85048    -3.63487
   448   1   -12.45180     1.95897    -3.74758
   449   1    -8.85097     1.75695    -3.40868
   450   1    -5.23607     1.75348    -3.45242
   451   1    -1.75373     1.78298    -3.43155
   452   1     1.75369     1.68997    -3.45136
   453   1     5.37876     1.67386    -3.47543
   454   1     8.82151     1.65664    -3.46502
   455   2    12.84030     1.97148    -4.60665
   456   2   -12.03370     5.48238    -3.56769
   457   1    -8.77123     5.11583    -3.45094
   458   1    -5.21124     5.26263    -3.62934
   459   1    -1.72837     5.13627    -3.35321
   460   1     1.94794     5.29143    -3.45416
   461   1     5.53307     5.31711    -3.34739
   462   1     8.93262     5.37171    -3.45265
   463   2    11.42300     5.72850    -3.86175
   464   2    -9.27145     9.16696    -3.97660
   465   1    -5.18404     8.90636    -3.73650
   466   1    -1.65236     8.74969    -3.45657
   467   1     1.96468     8.89668    -3.44012
   468   1     5.43833     8.90092    -3.47863
   469   2     9.31264     9.65696    -4.29775
   470   2    -5.43015    11.69270    -4.06529
   471   2    -2.06199    12.97230    -5.64798
   472   2     1.59476    12.78530    -5.61487
   473   2     5.42051    12.10260    -4.54247
   474   2    -5.79547   -12.40180    -0.06110
   475   1    -1.60887   -12.52450    -0.16211
   476   1     2.26206   -12.86810    -0.58487
   477   2     6.46837   -12.17880     0.07176
   478   1    -8.84252    -8.67434    -0.12500
   479   1    -5.44643    -8.86676     0.01262
   480   1    -1.92910    -8.80500    -0.02735
   481   1     1.67122    -8.94134     0.04075
   482   1     5.32353    -8.82580    -0.06417
   483   1     8.22872    -8.72957     0.06362
   484   2   -12.47490    -5.39129    -0.19225
   485   1    -9.00866    -5.44298     0.17179
   486   1    -5.42661    -5.23750    -0.03529
   487   1    -1.84144    -5.25752    -0.04941
   488   1     1.66387    -5.33543     0.05302
   489   1     5.20418    -5.21197     0.16111
   490   1     8.85050    -5.36750     0.05449
   491   2    12.47430    -5.63003     0.11112
   492   1   -12.24520    -1.61376     0.12293
   493   1    -8.75775    -1.78082     0.06537
   494   1    -5.40136    -1.90857     0.01542
   495   1    -1.69448    -1.76475     0.00440
   496   1     1.77185    -1.72665     0.06907
   497   1     5.14595    -1.82590     0.02339
   498   1     8.80720    -1.88721     0.05991
   499   1    12.18050    -1.98233     0.14493
   500   1   -12.12890     1.93544     0.23192
   501   1    -8.71175     1.79929     0.14985
   502   1    -5.29459     1.76532     0.12484
   503   1    -1.75646     1.92904     0.06083
   504   1     1.88478     1.76408     0.08519
   505   1     5.41657     1.68891     0.08506
   506   1     8.78002     1.63078     0.14765
   507   1    12.26650     1.46395    -0.11441
   508   1   -11.80440     5.84432     0.11298
   509   1    -8.61038     5.36401    -0.06264
   510   1    -5.16482     5.30556    -0.03607
   511   1    -1.51304     5.32925     0.14532
   512   1     1.90569     5.26453     0.13663
   513   1     5.47626     5.22798    -0.02914
   514   1     9.01330     5.31690     0.01125
   515   2    11.96110     6.17962     0.03792
   516   1    -8.41544     8.86444    -0.19609
   517   1    -5.11146     8.79157     0.06009
   518   1    -1.61379     8.71136     0.16733
   519   1     1.82348     8.68521     0.14314
   520   1     5.39909     8.73015     0.06548
   521   1     8.63887     8.61173     0.14232
   522   2    -5.95822    12.42680    -0.13654
   523   1    -1.48345    12.16580     0.06777
   524   1     1.81610    12.08590     0.13470
   525   2     5.53504    12.70970    -0.72351
   526   2    -5.78191   -11.83240     4.15172
   527   2    -2.01778   -13.15160     4.83112
   528   2     2.07068   -12.99410     5.25320
   529   2     5.64025   -11.82620     4.11579
   530   2    -9.44829    -8.78768     3.57500
   531   1    -5.49835    -8.97409     3.46375
   532   1    -1.92005    -9.00449     3.46733
   533   1     1.67858    -8.99678     3.52331
   534   1     5.31929    -8.79872     3.61165
   535   1     8.78425    -8.57403     3.74181
   536   2   -12.35990    -5.20536     3.78502
   537   1    -8.95028    -5.36569     3.60422
   538   1    -5.35440    -5.30060     3.56552
   539   1    -1.83896    -5.28750     3.53432
   540   1     1.65324    -5.31295     3.44863
   541   1     5.10433    -5.36752     3.50366
   542   1     8.66817    -5.33362     3.54032
   543   2    12.31770    -5.33154     4.08939
   544   2   -12.74630    -1.37258     4.01791
   545   1    -8.95512    -1.76733     3.75373
   546   1    -5.39625    -1.80941     3.56531
   547   1    -1.84886    -1.76369     3.64468
   548   1     1.62414    -1.89359     3.50397
   549   1     5.23034    -1.90384     3.54786
   550   1     8.79252    -1.85618     3.69874
   551   2    13.26970    -1.62557     4.99974
   552   2   -12.66140     1.26840     3.93198
   553   1    -8.80538     1.72568     3.56438
   554   1    -5.24521     1.71268     3.52925
   555   1    -1.67996     1.75200     3.62880
   556   1     1.87041     1.68131     3.67912
   557   1     5.25895     1.57378     3.54028
   558   1     8.80280     1.60266     3.60424
   559   2    12.61140     2.27479     4.62794
   560   2   -11.98940     5.46950     3.85109
   561   1    -8.52376     5.26677     3.49763
   562   1    -5.20230     5.37806     3.48077
   563   1    -1.56700     5.24462     3.66912
   564   1     1.94185     5.25302     3.61087
   565   1     5.41065     5.22247     3.55392
   566   1     8.91900     5.15989     3.65361
   567   2    11.26950     6.06195     4.11739
   568   1    -8.64405     8.80181     3.61952
   569   1    -4.97808     8.78337     3.58674
   570   1    -1.50084     8.79727     3.70506
   571   1     1.96470     8.81093     3.69052
   572   1     5.43509     8.75316     3.63020
   573   2     8.51381    10.04360     3.57987
   574   2    -5.16915    12.07100     3.82900
   575   1    -1.31167    12.57480     4.05411
   576   1     1.91329    12.12440     3.40205
   577   2     4.84548    12.75270     3.37563
   578   2    -2.03135   -12.08540     7.01751
   579   2     1.93101   -11.80740     7.07581
   580   2    -9.81854    -9.43141     7.61741
   581   1    -5.24425    -8.82606     6.98307
   582   1    -2.06826    -8.98301     6.84328
   583   1     1.67204    -8.88331     6.89770
   584   1     4.97547    -8.93531     7.09787
   585   2     9.85384    -9.31713     7.96594
   586   1    -8.73775    -5.47953     7.03942
   587   1    -5.30678    -5.25443     7.15066
   588   1    -1.89943    -5.46459     7.01201
   589   1     1.74253    -5.33299     7.00513
   590   1     5.20783    -5.42483     7.23732
   591   1     8.69425    -5.26347     7.26980
   592   2   -12.24850    -1.89862     7.23784
   593   1    -8.91796    -1.96231     7.29666
   594   1    -5.35466    -1.80909     7.16805
   595   1    -1.74956    -1.92698     7.03961
   596   1     1.78904    -1.77343     7.09696
   597   1     5.20960    -1.97122     7.19091
   598   1     8.81069    -2.08547     7.21822
   599   2    12.19930    -1.59648     7.17851
   600   2   -12.08020     2.00776     7.10106
   601   1    -8.79244     1.79408     7.07553
   602   1    -5.27410     1.57935     7.00278
   603   1    -1.72250     1.71816     7.04562
   604   1     1.80933     1.66567     7.05072
   605   1     5.37044     1.63223     7.02626
   606   1     8.95917     1.56049     7.24776
   607   2    11.96390     2.44631     7.03003
   608   1    -8.69326     5.24941     7.04992
   609   1    -5.12683     5.19031     7.10685
   610   1    -1.64000     5.14235     7.28023
   611   1     1.91378     5.31671     7.16711
   612   1     5.43360     5.11806     7.17252
   613   1     8.88469     4.77788     7.13965
   614   2    -9.22136     9.49708     7.38365
   615   1    -5.01507     8.73996     7.08145
   616   1    -1.57196     8.69041     7.15688
   617   1     1.88399     8.66767     7.26462
   618   1     5.55298     8.71144     7.16402
   619   2     8.11663     9.59512     7.45133
   620   2    -1.62193    12.11690     7.01130
   621   2     1.97857    11.96950     7.24123
   622   2    -6.03191    -8.68243    10.17030
   623   2    -2.02103    -9.01892    10.63230
   624   2     1.97610    -8.97409    10.71570
   625   2     6.01169    -8.66461    10.31880
   626   2    -9.19094    -5.74147    10.18720
   627   2    -6.01391    -6.23155    11.05990
   628   1    -1.87199    -5.46770    10.51100
   629   1     1.56436    -5.36065    10.50410
   630   2     5.80001    -6.25337    11.03270
   631   2     9.22585    -5.62249    10.24100
   632   2    -9.10897    -1.97161    10.55170
   633   1    -5.28139    -1.70635    10.52670
   634   1    -1.69639    -1.89745    10.71030