983
 Atoms. Timestep: 500
2 -4.05242 -3.9608 -11.9735
2 -0.0131106 -3.99495 -11.8911
2 4.03095 -3.99125 -11.6879
2 -4.08847 -0.0743378 -11.9419
2 -0.0276349 -0.0411049 -11.9117
2 4.0654 0.0403354 -11.7799
2 -4.03058 3.93714 -11.7872
2 -0.182012 4.08478 -11.9202
2 4.02429 3.95846 -11.7812
2 -7.76955 -7.87155 -7.7623
2 -3.81798 -7.86512 -7.89597
2 -0.0384448 -7.88764 -7.88464
2 3.9346 -7.91257 -7.72094
2 7.82567 -7.99791 -7.83744
2 -7.87365 -3.97991 -7.89
2 -3.94884 -3.93444 -7.92312
2 -0.0163584 -3.86633 -7.88055
2 3.85414 -3.95757 -7.83865
2 7.7758 -3.91408 -7.77898
2 -7.94125 -0.0641557 -7.94832
2 -4.07901 -0.02259 -7.94788
2 -0.0751775 0.116751 -8.03604
2 3.91471 0.0792204 -7.87308
2 7.935 0.042402 -7.84278
2 -7.92179 3.9497 -7.92428
2 -4.05251 3.97671 -8.0025
2 -0.0526259 3.94518 -7.95967
2 3.89318 3.9558 -7.89803
2 7.91157 3.88932 -7.88191
2 -7.9742 7.83085 -7.97177
2 -3.95493 7.78833 -7.86034
2 -0.0149269 7.92683 -7.83562
2 3.96853 7.84773 -7.87672
2 7.87868 7.9303 -7.94618
2 -4.08183 -11.7201 -4.015
2 0.079056 -11.9223 -4.07593
2 3.92121 -11.715 -3.90447
2 -7.79789 -7.83816 -3.83632
2 -3.858 -7.82261 -3.88535
2 -0.0558676 -7.93157 -3.99174
2 3.93878 -7.82538 -3.84831
2 7.74348 -7.84053 -3.81416
2 -11.7336 -4.01618 -3.97304
2 -7.94531 -3.95277 -3.9315
2 -3.99311 -3.95179 -3.9443
2 -0.0976025 -3.86029 -4.04111
2 3.94307 -3.9335 -4.05341
2 7.77146 -3.97522 -3.88203
2 11.6988 -4.02189 -3.90943
2 -11.9269 -0.0694384 -4.07136
2 -7.97691 -0.0272781 -3.89736
2 -4.02834 0.0940486 -3.99206
2 -0.176323 0.0498087 -3.96274
2 3.98175 0.022184 -3.96748
2 7.98394 0.0383942 -3.93118
2 11.7954 -0.0403532 -3.91788
2 -11.5793 3.93651 -3.97035
2 -7.9031 3.95431 -3.92162
2 -4.03837 3.94784 -3.93146
2 -0.0511142 3.88815 -3.93944
2 4.00769 3.88089 -3.95193
2 7.88762 3.94867 -3.94439
2 11.8747 3.92368 -3.87995
2 -7.96509 7.87927 -3.91416
2 -4.04772 7.78435 -3.93464
2 0.0227946 7.89791 -4.08091
2 3.89788 7.81833 -3.92877
2 7.9866 7.89232 -3.90197
2 -4.02075 11.7223 -4.0968
2 0.0552532 11.7687 -3.99073
2 4.03884 11.6872 -4.07887
2 -3.97785 -11.7718 -0.122531
2 -0.038642 -12.0087 -0.121552
2 3.83927 -11.8607 0.0379196
2 -7.96966 -7.86601 0.0756901
2 -3.83999 -7.83658 0.0484495
2 -0.0485581 -7.97216 0.00123801
2 3.78399 -7.87579 0.00320981
2 7.7518 -7.89813 0.0241977
2 -11.8935 -4.02755 -0.0582726
2 -7.97103 -3.97489 -0.00921854
2 -3.90882 -4.0288 -0.0221085
2 -0.0814624 -3.84137 -0.0374492
2 3.82287 -3.83012 -0.04082
2 7.83415 -3.85017 0.0212847
2 11.8369 -3.97339 0.156652
2 -11.92 -0.164492 -0.0553862
2 -7.99233 -0.0999499 -0.0399249
2 -4.0054 0.0260164 -0.026127
2 -0.0837955 -0.00173829 -0.00436963
2 3.80305 -0.00338989 -0.0510341
2 8.03301 0.0900834 0.0608878
2 11.8892 -0.0473656 0.161507
2 -11.8974 3.78586 -0.0433267
2 -7.96308 3.94749 0.0454908
2 -4.00939 3.88909 -0.0695022
2 -0.0499096 3.88475 0.0280012
2 3.89791 3.94838 -0.0411494
2 7.83866 3.87826 0.0337443
2 11.8094 3.9971 0.0716562
2 -8.06556 7.93768 -0.0136309
2 -3.9814 7.93332 -0.108034
2 -0.024725 7.9356 -0.090097
2 3.81451 7.77289 -0.0328679
2 7.81261 7.84017 -0.0101467
2 -3.98743 11.8092 -0.096537
2 -0.12619 11.8226 -0.116532
2 3.94684 11.9162 0.0161889
2 -4.0345 -11.6797 3.91572
2 -0.0695166 -12.0186 4.01256
2 3.8427 -11.8647 3.92291
2 -7.8302 -7.87102 3.90258
2 -3.81889 -7.8657 3.93929
2 0.0370239 -7.92193 3.9493
2 3.76849 -7.82824 3.9467
2 7.68164 -7.79712 3.90977
2 -11.7873 -4.08379 3.94575
2 -7.83708 -3.90119 3.80111
2 -3.86297 -3.94064 3.86914
2 -0.0166278 -3.81785 3.89908
2 3.8056 -3.84859 3.89878
2 7.73522 -3.91989 3.83147
2 11.733 -3.95621 4.16906
2 -11.9144 -0.0906329 4.04005
2 -8.00117 -0.0822565 3.81234
2 -4.01593 -0.0457337 3.94181
2 -0.137635 -0.0092999 3.93127
2 3.92186 -0.00145564 3.91664
2 7.93457 -0.0294883 3.92598
2 11.8284 0.0360661 3.99876
2 -11.8258 3.85685 3.80198
2 -7.85964 3.89567 3.88413
2 -3.98652 3.97549 3.93092
2 -0.0129056 3.91838 3.82688
2 3.92807 3.90145 3.91657
2 7.7672 3.92717 3.89365
2 11.6687 3.89369 4.07193
2 -8.02226 7.83597 3.94614
2 -4.00783 7.89597 3.86958
2 -0.0047293 7.84399 3.83085
2 3.79968 7.83512 3.85751
2 7.74927 7.81943 3.89798
2 -3.99548 11.6339 3.902
2 -0.053873 11.9446 3.97455
2 4.00775 11.9202 3.88667
2 -7.82674 -7.81645 7.89291
2 -3.87412 -7.85742 7.8561
2 -0.0278944 -7.99118 7.84759
2 3.91532 -7.7814 7.88088
2 7.72631 -7.82499 7.76732
2 -7.8408 -3.94592 7.67474
2 -3.88308 -3.87493 7.75562
2 -0.027499 -3.90184 7.80533
2 3.91419 -3.90026 7.82595
2 7.77437 -3.77396 7.80246
2 -7.87191 0.00523803 7.92613
2 -3.9083 -0.00320674 7.8043
2 -0.0465871 -0.0802013 7.95645
2 3.83919 -0.0413219 7.92039
2 7.82713 0.0122377 7.82466
2 -7.84029 3.86779 7.80213
2 -3.86712 3.9155 7.84713
2 -0.0556705 3.90481 7.87341
2 3.85172 3.86479 7.82209
2 7.70974 3.76978 7.81539
2 -7.76199 7.77025 7.90339
2 -3.92889 7.8668 7.8415
2 -0.0814854 7.79709 7.81974
2 3.79306 7.779 7.83232
2 7.58889 7.72528 7.94857
2 -3.90264 -4.02855 11.5666
2 -0.0510652 -4.09182 11.8706
2 3.97876 -3.96856 11.9078
2 -3.97991 -0.0686055 11.9174
2 -0.0676947 -0.0488005 11.9185
2 3.94205 0.0437661 11.8428
2 -3.95036 3.93146 11.8435
2 -0.114115 4.00763 11.9341
2 3.90943 3.86947 11.8097
2 -2.09379 -5.96918 -11.8687
2 2.01791 -5.94205 -11.7797
2 -5.97484 -1.99572 -11.8642
2 -2.06358 -1.9835 -11.9948
2 1.92585 -1.93846 -11.7249
2 6.00651 -2.06114 -11.7664
2 -6.01114 1.87304 -11.8223
2 -2.09746 1.91657 -11.9028
2 1.89479 1.96258 -11.8979
2 6.01045 1.99155 -11.7365
2 -2.09259 6.07551 -11.7766
2 1.90437 5.89818 -11.8602
2 -5.76103 -9.78727 -7.77225
2 -2.07087 -9.9929 -7.9419
2 1.99554 -9.74499 -7.74978
2 5.91685 -10.0476 -7.75019
2 -9.86117 -6.00635 -7.67837
2 -5.87319 -5.95645 -7.82205
2 -1.91315 -5.90805 -7.9856
2 1.97928 -5.88249 -7.83288
2 5.87077 -5.94161 -7.78759
2 9.59952 -5.85402 -7.86987
2 -9.89138 -2.04805 -7.89805
2 -5.89574 -2.03881 -7.87534
2 -2.07725 -1.9489 -7.94841
2 1.85857 -1.90973 -7.88714
2 5.91007 -1.93713 -7.78876
2 9.81981 -2.00312 -7.8162
2 -9.93453 2.01153 -7.92152
2 -5.99618 1.96612 -7.92495
2 -2.12261 2.0425 -8.06697
2 1.94849 2.07429 -7.97521
2 5.92731 1.95504 -7.87336
2 9.9516 1.94208 -7.83433
2 -9.86433 5.91406 -7.88229
2 -5.9952 5.9255 -7.85351
2 -1.9607 5.88727 -7.86951
2 1.8668 5.94051 -7.86734
2 5.90067 5.94705 -7.85833
2 9.73846 5.94242 -7.93339
2 -6.02144 9.6055 -7.91724
2 -2.03598 9.88713 -7.80911
2 1.92538 9.9249 -7.92021
2 6.11064 9.94603 -7.91677
2 -5.80978 -9.69809 -3.86982
2 -1.99603 -9.95249 -4.01738
2 1.94817 -9.84084 -3.97751
2 5.85824 -9.8182 -3.82001
2 -9.76985 -5.94615 -3.80722
2 -5.92107 -5.87231 -3.88677
2 -1.95076 -5.88193 -4.02032
2 1.88878 -5.85612 -3.97676
2 5.84898 -5.95069 -3.87071
2 9.73715 -5.92426 -3.77713
2 -9.95205 -2.01381 -3.95336
2 -5.95654 -1.99396 -3.89413
2 -2.06807 -1.93524 -3.97421
2 1.90726 -1.89012 -3.99286
2 5.93786 -1.93685 -3.91875
2 9.84975 -2.01641 -3.87672
2 -9.78621 1.96992 -3.97153
2 -6.00889 1.96915 -3.96244
2 -2.07608 1.98605 -4.03958
2 1.85996 1.96234 -3.9624
2 6.01611 1.95806 -3.98237
2 9.96154 2.00754 -3.93136
2 -9.78168 5.90709 -3.89302
2 -6.06243 5.8911 -3.90826
2 -1.99818 5.82663 -3.99244
2 1.95293 5.82287 -3.97198
2 5.94538 5.92686 -3.97031
2 9.96288 5.90634 -3.91921
2 -6.02509 9.78729 -3.94004
2 -2.00292 9.89367 -3.98734
2 2.00434 9.82357 -3.96339
2 5.90812 9.70233 -3.89591
2 -2.15298 -13.8271 -0.127133
2 1.84114 -13.8619 0.0100923
2 -10.0077 -9.76312 0.0176089
2 -5.88316 -9.78823 -0.0739123
2 -1.93111 -9.8911 -0.0169785
2 1.82676 -10.0171 -0.0365151
2 5.82112 -9.91501 0.0463115
2 9.80557 -9.75413 0.12704
2 -9.97083 -5.89118 0.0805847
2 -5.92258 -5.86055 0.0571223
2 -1.92872 -5.9052 0.028424
2 1.80933 -5.85514 -0.11765
2 5.82044 -5.83501 0.0199737
2 9.75859 -5.79181 0.124165
2 -13.8341 -1.97071 -0.0195332
2 -9.94645 -2.00998 -0.0697366
2 -5.9494 -2.00069 -0.0471892
2 -2.0415 -1.95403 -0.0799588
2 1.87506 -1.95198 -0.127259
2 5.82424 -1.86145 0.0275247
2 9.93502 -2.00232 0.132207
2 13.8256 -2.07718 0.125851
2 -13.8069 1.75352 -0.114664
2 -9.93893 1.87901 0.0646166
2 -5.9298 1.90284 -0.0509695
2 -2.05494 1.96803 -0.0393841
2 1.90353 1.90783 -0.0547002
2 5.89825 1.97208 -0.0179372
2 10.0049 1.9959 0.0665825
2 13.6924 1.92801 0.0709978
2 -9.93293 5.92703 -0.000250719
2 -5.97957 5.90402 -0.00801929
2 -2.00745 5.91299 -0.0287529
2 1.90031 5.8615 -0.0340496
2 5.83232 5.86359 -0.0491278
2 9.82823 5.98574 0.0389247
2 -9.90262 9.76907 -0.0606937
2 -6.09605 9.97345 -0.0332983
2 -2.00413 9.93466 -0.121928
2 1.88276 9.86467 -0.0569701
2 5.81492 9.85132 -0.00233101
2 9.78872 9.72652 -0.00559075
2 -2.10283 13.7536 -0.0366755
2 1.90326 13.8773 -0.0142699
2 -5.80233 -9.64915 3.83074
2 -1.8883 -9.94258 3.98801
2 1.83874 -9.93799 4.00312
2 5.78266 -9.80979 3.85704
2 -9.80353 -6.01015 3.92861
2 -5.83513 -5.92517 3.89209
2 -1.87204 -5.88872 3.92023
2 1.87934 -5.83682 3.88608
2 5.76256 -5.79626 3.91062
2 9.65785 -5.83978 3.93399
2 -9.93793 -1.9482 3.86435
2 -5.92847 -2.0234 3.93608
2 -2.04741 -1.93652 3.83328
2 1.89588 -1.92496 3.90147
2 5.80559 -1.9827 3.84419
2 9.8858 -2.01161 3.95653
2 -9.88853 1.83273 3.94857
2 -5.91044 1.91752 3.90512
2 -1.98547 1.92958 3.92307
2 1.84651 1.95602 3.86465
2 5.93378 1.96213 3.89247
2 9.8457 1.96601 3.96086
2 -10.0349 5.88089 3.90539
2 -5.98901 5.95455 3.88071
2 -1.98193 5.87715 3.82282
2 1.99146 5.85649 3.87316
2 5.78027 5.95415 3.92798
2 9.86146 5.91421 4.06447
2 -5.91831 9.789 3.88423
2 -1.94586 9.88105 3.96794
2 1.87744 9.9248 3.92524
2 5.77925 9.84224 3.86367
2 -5.81914 -9.66079 7.96465
2 -2.01083 -9.84346 7.90727
2 1.95843 -9.94154 7.91918
2 5.74031 -9.74792 7.94025
2 -9.82221 -5.81293 7.69271
2 -5.87092 -5.89017 7.81246
2 -1.90868 -5.87283 7.81596
2 1.89291 -5.85739 7.84365
2 5.88148 -5.83075 7.81428
2 9.60885 -5.87346 7.6971
2 -9.80428 -1.93749 7.93391
2 -5.89901 -1.89633 7.72869
2 -1.9301 -1.95839 7.91598
2 1.93036 -1.98163 7.9466
2 5.8483 -1.91854 7.81584
2 9.8109 -1.80993 7.82554
2 -9.86826 1.97516 7.87862
2 -5.85696 1.90052 7.88578
2 -1.96741 1.96593 7.87716
2 1.8686 1.84948 7.94833
2 5.81929 1.84471 7.86184
2 9.7833 1.91299 7.96859
2 -9.62135 5.86705 7.80295
2 -5.87597 5.87057 7.90869
2 -1.97094 5.87323 7.86222
2 1.85845 5.88296 7.88583
2 5.78865 5.82366 7.81245
2 9.5801 5.78328 8.00096
2 -5.81583 9.83981 7.78661
2 -1.94933 9.86434 7.80657
2 1.91977 9.85179 7.7347
2 5.72567 9.57389 7.97341
2 -1.99154 -6.00525 11.7042
2 1.98466 -5.90579 11.6689
2 -5.86025 -1.98858 11.7176
2 -2.00947 -2.02779 11.8454
2 1.99292 -2.09018 12.0588
2 6.02665 -1.83389 11.8431
2 -5.9823 1.8889 11.7728
2 -2.04617 1.99503 12.0423
2 1.89689 1.9478 11.8807
2 5.89891 1.91449 11.8992
2 -2.08133 5.9574 11.7769
2 2.00097 5.9717 11.8076
2 -1.96272 -11.9248 -5.95581
2 2.05479 -11.9276 -5.99648
2 -5.9852 -11.7597 -1.99215
2 -2.04805 -11.9462 -2.11628
2 1.97707 -12.0831 -2.02168
2 5.89207 -11.888 -1.96374
2 -5.77647 -11.6175 1.85976
2 -2.04374 -11.7943 1.8247
2 1.79242 -11.9946 1.99724
2 5.83706 -11.9324 1.99641
2 -2.13659 -11.8232 5.95522
2 1.97078 -11.9064 5.91094
2 -5.88852 -7.85419 -9.67398
2 -1.92598 -8.02124 -9.9259
2 1.96747 -7.80596 -9.77711
2 5.75797 -7.95725 -9.82637
2 -9.75026 -7.88964 -5.75669
2 -5.74277 -7.86889 -5.86258
2 -1.93747 -7.93006 -5.9374
2 1.94251 -7.9003 -5.78461
2 5.84674 -7.92201 -5.86487
2 9.75788 -7.7212 -5.83034
2 -9.88362 -7.74717 -1.89495
2 -5.90395 -7.72162 -1.87946
2 -1.92708 -7.96813 -1.99405
2 1.83674 -7.87225 -1.95645
2 5.82259 -7.79905 -1.89041
2 9.78369 -7.89397 -1.8142
2 -9.91429 -7.84742 1.95345
2 -5.86719 -7.79977 2.01851
2 -1.81509 -7.95359 1.97315
2 1.88605 -7.92723 1.95577
2 5.72463 -7.82319 1.95343
2 9.80335 -7.79805 1.96696
2 -9.68422 -8.02075 5.97425
2 -5.86084 -7.83656 5.86971
2 -1.94291 -7.87057 5.95115
2 1.87079 -7.86063 5.95353
2 5.76082 -7.86662 5.8062
2 9.61003 -7.83775 5.80071
2 -5.95876 -7.63531 9.80755
2 -1.91285 -8.01556 9.82743
2 1.89397 -7.861 9.71912
2 5.93092 -7.73499 9.82062
2 -5.93398 -3.97338 -9.87464
2 -2.05756 -3.9004 -9.97057
2 1.90065 -3.96442 -9.85444
2 5.83309 -3.88251 -9.76527
2 -9.75766 -3.95794 -5.88766
2 -5.84068 -3.96181 -5.93387
2 -1.98171 -3.95209 -5.97868
2 1.88392 -3.81566 -5.90374
2 5.89632 -3.91146 -5.92862
2 9.6887 -3.9652 -5.86695
2 -9.88804 -3.96685 -1.96172
2 -5.93889 -4.03664 -1.94526
2 -2.00737 -3.90855 -2.00491
2 1.88297 -3.81694 -2.03982
2 5.78036 -3.86875 -1.9522
2 9.85501 -3.99191 -1.84035
2 -9.94843 -3.98907 1.91581
2 -5.85417 -3.9088 1.92889
2 -1.96197 -3.93994 1.89335
2 1.92478 -3.87206 1.95508
2 5.71463 -3.84993 1.96928
2 9.82249 -3.82654 2.01674
2 -9.80016 -3.9166 5.81052
2 -5.94168 -3.98339 5.7737
2 -1.93438 -3.91156 5.80711
2 1.90818 -3.91287 5.833
2 5.77822 -3.95526 5.91036
2 9.73726 -3.91363 5.8748
2 -5.86791 -3.82267 9.58166
2 -1.9298 -4.01394 9.78938
2 1.96859 -3.97219 9.86154
2 5.91527 -3.87875 9.89133
2 -1.94915 0.0590249 -13.7904
2 2.09314 0.0363037 -13.8195
2 -9.90455 0.017049 -9.76171
2 -6.01863 -0.0377122 -9.93486
2 -2.11868 0.0172798 -10.0041
2 1.99973 0.0614124 -9.9291
2 5.90834 -0.0430786 -9.81949
2 9.93958 0.0567988 -9.70534
2 -9.91179 -0.0399704 -5.88909
2 -5.9908 -0.0254312 -5.94478
2 -2.01163 0.0746294 -6.07548
2 1.88452 0.0923484 -5.98593
2 5.97202 -0.0235182 -5.8719
2 9.96073 -0.0207301 -5.91469
2 -13.8546 -0.153452 -2.15839
2 -9.99714 -0.10733 -1.99167
2 -5.90143 -0.00600662 -2.00586
2 -2.09189 0.00751443 -2.0014
2 1.8148 0.00992436 -2.04392
2 6.00658 0.0350957 -1.91463
2 9.912 0.035076 -1.86516
2 13.7283 -0.134848 -1.86549
2 -13.8888 -0.21317 2.06414
2 -9.9817 -0.100742 1.89035
2 -5.90828 -0.102176 1.93056
2 -2.04378 0.0422226 1.95295
2 1.81362 0.042792 1.91623
2 5.93995 0.101601 1.92744
2 9.91332 -0.0755802 2.03982
2 13.8647 -0.0441331 2.09458
2 -9.82492 -0.0772 5.90529
2 -6.01077 0.0432197 5.86548
2 -2.00671 -0.045333 5.90026
2 1.87094 0.00026997 5.87067
2 5.87396 -0.0880411 5.9177
2 9.83184 -0.0478141 5.88972
2 -9.91552 -0.0167968 9.82396
2 -5.85321 -0.0674117 9.85784
2 -1.94581 -0.0719749 10.0101
2 1.81694 -0.161208 9.9541
2 5.84778 -0.0601981 9.76659
2 9.9966 -0.0272411 9.85656
2 -1.98912 -0.13689 13.876
2 1.9928 0.0403213 13.8439
2 -6.00666 3.95969 -9.90247
2 -2.03246 4.0013 -9.92961
2 1.91909 3.96861 -9.95651
2 5.89211 3.91435 -9.7768
2 -9.82549 4.02908 -5.90186
2 -5.96674 4.04074 -5.95364
2 -2.07794 3.95713 -5.9702
2 1.92129 3.92437 -5.93878
2 6.0102 3.98327 -6.01218
2 9.97353 3.9639 -5.87037
2 -9.82391 3.92253 -1.84142
2 -5.95907 3.9376 -1.94507
2 -2.02523 3.92202 -2.01398
2 1.93628 3.88774 -2.05196
2 5.94669 3.89584 -2.05354
2 9.88661 3.99619 -1.93713
2 -9.86734 3.81876 1.96613
2 -5.8972 3.90847 1.99794
2 -2.06369 3.92085 1.94405
2 1.96189 3.87788 1.87555
2 5.84514 3.92585 1.96101
2 9.7815 4.04527 2.03111
2 -9.80498 3.84337 5.79117
2 -5.86448 3.92633 5.91504
2 -1.95181 4.0154 5.83937
2 1.86132 3.94812 5.85137
2 5.79902 3.87232 5.92801
2 9.70398 3.91091 5.9877
2 -5.82555 3.87156 9.81479
2 -2.03822 3.93848 9.88024
2 1.82032 3.87599 9.87596
2 5.80805 3.76368 9.79691
2 -5.93832 7.73281 -9.92627
2 -2.04686 7.9979 -9.83092
2 1.84297 7.89519 -9.81922
2 5.89863 7.86267 -9.8344
2 -9.90436 7.7898 -5.94026
2 -6.04021 7.83388 -5.93646
2 -1.96393 7.95091 -5.91287
2 1.96083 7.84123 -5.89214
2 5.99304 7.94057 -5.93626
2 9.91652 7.84547 -5.86384
2 -9.91292 7.85246 -1.97182
2 -6.04116 7.92813 -1.94232
2 -1.9989 7.88352 -2.053
2 1.89576 7.81625 -2.09653
2 5.88292 7.81968 -1.948
2 9.95332 7.92694 -1.91725
2 -10.0387 7.89201 1.96438
2 -6.08972 7.9024 1.80601
2 -2.01605 7.87195 1.87679
2 1.89535 7.86582 1.88282
2 5.84354 7.77631 1.86454
2 9.85942 7.88477 2.06668
2 -9.62365 7.87919 5.98873
2 -5.97893 7.83268 5.87953
2 -2.01653 7.93299 5.8325
2 1.8613 7.84473 5.82236
2 5.78506 7.78377 5.86956
2 9.5947 7.81249 6.12775
2 -5.76531 7.89018 9.8496
2 -1.92105 7.90881 9.85406
2 1.86606 7.93137 9.80087
2 5.71929 7.61333 9.90817
2 -1.95572 11.7469 -5.9679
2 2.12127 11.9056 -5.85674
2 -6.00531 11.8314 -2.07957
2 -2.07905 11.9857 -2.09638
2 1.96298 11.8623 -1.98892
2 5.82107 11.767 -2.04077
2 -5.8692 11.7816 1.94047
2 -1.99923 11.7267 1.98146
2 1.90466 11.9428 1.82089
2 5.95267 11.8474 1.96862
2 -2.03478 11.7943 5.82167
2 1.99991 11.8262 5.8544
2 -11.8205 -1.98744 -5.92324
2 -11.7798 1.93539 -5.82872
2 -11.868 -5.90989 -1.99961
2 -11.8983 -2.06832 -2.08146
2 -11.7127 1.88336 -2.02399
2 -11.9013 5.75856 -1.92993
2 -11.902 -5.92723 2.05428
2 -11.8512 -2.05687 1.97368
2 -11.7977 1.72672 1.91301
2 -11.884 5.76411 1.84971
2 -11.8947 -2.14513 5.94792
2 -11.7609 1.95857 5.88473
2 -7.81721 -5.98357 -9.69063
2 -7.99368 -2.03982 -9.88876
2 -8.00552 1.99573 -9.93015
2 -7.92684 5.93652 -9.85594
2 -7.68577 -9.78048 -5.80721
2 -7.81587 -5.95126 -5.82169
2 -7.90382 -2.01554 -5.95832
2 -7.95865 1.99118 -5.93035
2 -7.96017 5.87777 -5.97735
2 -7.94206 9.76148 -5.92148
2 -7.96907 -9.82579 -1.89205
2 -7.85308 -5.94218 -1.84939
2 -7.91057 -2.01202 -1.9899
2 -7.97826 1.97978 -1.96572
2 -7.90992 5.91236 -1.95204
2 -7.97768 9.96595 -1.94793
2 -7.86672 -9.83991 1.92311
2 -7.90692 -5.92226 1.96913
2 -7.97912 -2.04202 1.85835
2 -7.86317 1.88387 1.98261
2 -7.99729 5.96416 1.95363
2 -8.02753 9.99567 1.97434
2 -7.66196 -9.71731 5.86329
2 -7.84813 -5.95699 5.87072
2 -7.91837 -1.94657 5.84795
2 -7.77831 1.95713 5.87697
2 -7.84539 5.80593 5.86978
2 -7.74867 9.91545 5.97212
2 -7.89367 -5.87865 9.61481
2 -7.88662 -2.00464 9.86864
2 -7.87838 1.88769 9.86539
2 -7.71383 5.85495 9.90078
2 -3.87719 -5.91451 -9.88892
2 -4.06162 -2.01152 -9.90097
2 -4.12734 1.91575 -9.90189
2 -4.01074 5.87399 -9.84634
2 -3.87465 -9.78287 -5.83457
2 -3.90035 -5.88314 -5.9511
2 -3.99148 -1.9225 -5.91364
2 -4.04078 2.041 -6.00775
2 -3.99801 5.88277 -5.90011
2 -4.04232 9.71877 -5.90505
2 -3.93401 -9.83939 -1.93373
2 -3.84024 -5.92142 -1.93843
2 -4.02805 -2.00987 -1.97385
2 -4.00173 1.9813 -2.03089
2 -4.00091 5.79327 -2.0225
2 -4.04037 9.88281 -2.0605
2 -3.81321 -9.75863 1.93792
2 -3.82424 -5.90047 2.02904
2 -3.96173 -1.97403 1.87901
2 -4.02778 1.87423 1.95193
2 -3.99805 5.93857 1.88741
2 -4.06323 9.78551 1.92976
2 -3.95549 -9.77635 5.90834
2 -3.86931 -5.94288 5.88773
2 -3.95012 -1.95025 5.81983
2 -3.93983 1.95943 5.91595
2 -3.91364 6.00972 5.8373
2 -3.99462 9.70593 5.87466
2 -3.92134 -5.9625 9.72954
2 -3.88956 -1.97147 9.78184
2 -3.80053 1.85943 9.87414
2 -3.88432 5.90524 9.77458
2 0.0775938 -1.99723 -13.7871
2 -0.0161746 2.00783 -13.8292
2 0.160377 -9.91383 -9.74979
2 -0.0743481 -5.87552 -9.85202
2 -0.119168 -1.93931 -9.93606
2 -0.08504 2.02225 -10.0357
2 -0.123846 6.00282 -9.91729
2 -0.0336097 9.85455 -9.72072
2 0.00842318 -9.96119 -5.94182
2 0.0163 -5.83351 -5.98647
2 -0.0563886 -1.80841 -5.90925
2 -0.133617 2.07473 -6.02611
2 -0.00144093 5.88472 -5.88591
2 0.0407146 9.90144 -5.93043
2 -0.135378 -13.8863 -2.14742
2 -0.0575577 -10.0394 -2.0772
2 -0.117491 -5.89071 -2.07086
2 -0.0486394 -1.94114 -2.06805
2 -0.143134 1.98272 -1.99863
2 -0.0373139 5.93685 -2.02809
2 -0.064344 9.91895 -2.09579
2 -0.0180939 13.8188 -1.98216
2 -0.275083 -13.8835 1.86836
2 -0.0419393 -10.036 1.98126
2 0.00780953 -5.83903 1.90226
2 -0.0236143 -1.89911 1.88095
2 -0.085389 1.95126 1.96955
2 -0.0335882 5.87082 1.93491
2 -0.0771229 9.96027 1.91278
2 -0.07661 13.7103 1.9449
2 -0.0561248 -9.99901 5.92843
2 -0.000663905 -5.8656 5.89222
2 -0.0250823 -1.91515 5.90077
2 -0.0260982 1.92383 5.89002
2 -0.0382595 5.9302 5.89661
2 -0.0428809 9.89481 5.84244
2 0.0887606 -9.8319 9.91409
2 -0.0381829 -5.92465 9.75317
2 -0.0801262 -2.11848 10.0569
2 -0.0686993 1.97614 9.97438
2 -0.0756657 5.94483 9.87059
2 0.080117 9.80673 9.63417
2 -0.0158214 -2.03262 13.8259
2 0.028143 1.94785 13.9295
2 3.92153 -5.87045 -9.79381
2 3.93425 -1.96759 -9.85068
2 3.99277 1.95694 -9.8733
2 3.82811 5.94091 -9.80555
2 3.93088 -9.80449 -5.71022
2 3.91074 -5.94743 -5.88392
2 3.87659 -1.89702 -5.88093
2 3.925 2.02216 -5.90911
2 3.94242 5.98933 -5.96443
2 4.03222 9.82848 -6.00109
2 3.87121 -9.90739 -1.90088
2 3.80602 -5.83855 -1.95702
2 3.8778 -1.88579 -2.0178
2 3.93807 1.94008 -2.00526
2 3.92674 5.81677 -2.04038
2 3.95832 9.82659 -1.97389
2 3.87226 -9.87867 2.04841
2 3.79357 -5.8202 1.89567
2 3.84993 -1.89426 1.88426
2 3.86014 1.92609 1.90439
2 3.83084 5.85486 1.89605
2 3.86858 9.89591 1.96367
2 3.8516 -9.79867 5.87528
2 3.83416 -5.87937 5.83054
2 3.8633 -1.95428 5.85553
2 3.86612 1.89685 5.88198
2 3.86626 5.8738 5.87673
2 3.90469 9.80442 5.81252
2 3.93934 -5.83493 9.80358
2 3.94272 -2.03099 10.0023
2 3.80049 1.87411 9.87178
2 3.79198 5.77477 9.7065
2 7.60553 -5.93677 -9.80986
2 7.93276 -1.8905 -9.7606
2 8.00173 1.94967 -9.8084
2 7.74501 5.90018 -9.90009
2 7.97434 -9.85445 -5.7336
2 7.7662 -6.03719 -5.82407
2 7.93768 -1.91209 -5.81409
2 7.98062 2.05242 -5.89355
2 7.91452 5.97553 -5.85032
2 7.84122 9.763 -5.92071
2 7.75584 -9.86766 -1.92579
2 7.80707 -5.8671 -1.85166
2 7.94164 -1.91596 -1.96754
2 7.99414 2.01022 -1.96038
2 7.91653 5.87934 -2.01195
2 7.8061 9.86831 -1.91977
2 7.85697 -9.81264 1.91557
2 7.76877 -5.78264 1.9099
2 7.82636 -1.88028 1.99287
2 7.92793 1.96085 1.97916
2 7.775 5.87625 1.97725
2 7.86967 9.84296 1.88008
2 7.6092 -9.79845 5.95152
2 7.70378 -5.81246 5.82979
2 7.81278 -1.98284 5.82232
2 7.82899 1.91661 5.93474
2 7.73468 5.83918 5.91326
2 7.55921 9.71329 5.9639
2 7.81165 -5.7744 9.74395
2 7.83233 -1.88953 9.72422
2 7.86717 1.83656 9.89851
2 7.65576 5.7046 9.8725
2 11.6583 -2.13627 -5.83179
2 11.905 2.11372 -5.89028
2 11.6671 -6.02327 -1.75546
2 11.8554 -1.9781 -1.85283
2 12.0076 1.95242 -1.91559
2 11.8569 5.95416 -1.90847
2 11.645 -5.83087 2.15909
2 11.8913 -2.02328 2.07741
2 11.8154 1.99677 2.04898
2 11.7639 5.969 2.0629
2 11.9128 -1.91532 6.053
2 11.7278 1.90754 6.00547
1 -2.21329 -2.2221 -15.0982
1 2.37427 -2.4086 -15.2336
1 -2.53684 2.58083 -15.2633
1 2.36023 2.56722 -15.1443
1 -4.21003 -9.81974 -9.73015
1 3.90403 -9.82954 -9.53136
1 -9.88348 -4.33639 -9.68996
1 10.1239 -3.90309 -9.48013
1 -9.7711 3.89148 -9.89116
1 9.85194 3.84371 -9.76046
1 -4.16421 9.90211 -9.59729
1 4.06884 9.71758 -9.66515
1 -2.54765 -14.9694 -2.36941
1 4.05182 -13.4407 -5.85301
1 -9.72414 -9.40772 -3.94318
1 9.71683 -9.55212 -3.83474
1 -15.5098 -2.52424 -2.57227
1 14.7203 -2.47366 -2.54195
1 -15.3709 2.12169 -2.4327
1 14.9406 1.93076 -2.18523
1 -9.72641 9.61304 -3.76212
1 9.47075 9.89214 -3.83071
1 -2.4028 14.7313 -2.2129
1 2.11845 15.3666 -2.39458
1 -2.4498 -15.1976 2.27933
1 2.06662 -14.9599 2.24795
1 -9.6058 -9.81978 4.09991
1 9.53956 -9.68161 3.99038
1 -15.2189 -2.37229 2.4248
1 15.4192 -2.41634 2.10174
1 -15.1575 2.13539 2.04445
1 14.8987 2.39711 2.36259
1 -9.64147 9.90582 3.8243
1 9.72822 9.61164 4.3089
1 -2.23238 15.2835 1.89972
1 4.71348 14.1266 4.36998
1 -3.99838 -9.85407 9.64306
1 3.99983 -9.86819 9.8956
1 -9.55162 -4.09798 9.70851
1 9.99887 -3.8373 9.47957
1 -9.53941 4.08275 9.78725
1 9.46515 3.77255 9.80941
1 -3.6763 9.83575 9.47876
1 3.90607 9.72926 9.8488
1 -2.1604 -2.54699 15.0247
1 2.87448 -2.90979 14.7595
1 -2.42828 2.37235 15.0405
1 2.29771 2.26927 15.1233
1 -2.072 -4.01933 -13.7919
1 2.03564 -4.03307 -13.5859
1 -4.08556 -1.72266 -13.8567
1 3.93545 -1.83655 -13.5382
1 -4.1802 1.83593 -13.6392
1 3.94674 2.02135 -13.5231
1 -2.11636 4.11537 -13.5559
1 1.98849 4.0468 -13.603
1 -5.9544 -11.7563 -6.16525
1 5.904 -11.8248 -5.9851
1 -11.6497 -5.89284 -5.88832
1 13.2168 -4.04716 -6.10214
1 -12.8469 4.18931 -6.37277
1 13.0884 4.56236 -6.34745
1 -4.32598 13.013 -6.26291
1 6.09529 11.7916 -5.76942
1 -7.72377 -11.3296 -3.99045
1 7.43513 -11.786 -3.95829
1 -11.69 -7.82072 -4.03568
1 11.5659 -8.10391 -3.75104
1 -11.6587 7.75269 -4.0494
1 11.6427 7.87975 -3.96989
1 -7.99966 11.4651 -4.13223
1 7.77322 11.6276 -3.96947
1 -7.87104 -11.5517 -0.0346379
1 7.87431 -11.6875 -0.166622
1 -11.897 -7.64495 0.0260545
1 11.7009 -7.72396 0.107809
1 -12.0412 7.72591 -0.159698
1 11.8126 7.90215 0.1925
1 -7.99251 11.8244 0.110101
1 7.88707 11.7376 0.0985818
1 -7.71099 -11.1813 3.96766
1 8.12139 -11.498 3.78672
1 -11.2885 -8.23775 3.90775
1 11.2183 -7.78989 4.08438
1 -11.4239 8.23833 4.57786
1 11.4172 8.11613 4.25921
1 -7.83141 11.5527 4.03464
1 8.1863 11.2224 3.95115
1 -4.35841 -13.0416 6.2044
1 4.55636 -12.4846 6.18414
1 -12.2553 -5.0161 6.71843
1 13.2687 -4.11279 6.44991
1 -11.5567 5.72614 6.13576
1 11.5807 6.07261 6.38626
1 -4.05348 13.0876 6.16788
1 4.6248 12.482 6.22225
1 -2.04581 -4.27322 13.5715
1 1.92534 -4.58371 13.6634
1 -4.0308 -2.33358 13.6157
1 4.30348 -1.52226 13.8318
1 -4.14457 1.74548 13.8096
1 4.11555 2.07092 13.7277
1 -2.3741 4.39865 13.9849
1 1.98419 3.889 13.5074
1 -1.92119 -13.667 -4.27335
1 2.29753 -13.6398 -4.02818
1 -4.34509 -13.6395 -1.83115
1 4.23598 -13.7112 -2.17624
1 -4.05145 -13.5363 2.15887
1 3.9209 -13.6985 2.09811
1 -2.38903 -13.4802 4.0153
1 1.82109 -13.709 4.16334
1 -4.28659 -6.346 -12.9271
1 4.87698 -6.46612 -12.3359
1 -13.2118 -6.13524 -4.33313
1 11.7503 -5.86442 -6.14521
1 -11.9539 -6.64492 5.19628
1 11.7179 -5.84741 6.09953
1 -6.04809 -5.85569 11.513
1 5.83964 -6.19959 11.5851
1 -8.07898 -4.14343 -11.4837
1 8.35868 -3.95048 -11.201
1 -11.7495 -4.26451 -7.60398
1 11.6808 -4.33206 -7.83245
1 -11.5001 -3.70258 8.4158
1 11.4537 -3.91177 7.89681
1 -7.82354 -4.29448 11.521
1 8.40546 -3.58864 11.2397
1 -8.00511 -0.11519 -11.8383
1 7.821 -0.171159 -11.6367
1 -11.6174 -0.0810617 -7.70063
1 11.8953 0.022336 -7.76464
1 -11.6627 -0.0696012 7.89044
1 11.7495 0.105295 7.9457
1 -7.64836 -0.228796 11.7284
1 7.89146 0.0517175 11.5834
1 -8.06011 3.93685 -11.5499
1 8.19571 3.93633 -11.3584
1 -11.4119 4.10883 -8.20453
1 11.5644 3.86297 -8.07325
1 -11.3037 4.0842 7.92524
1 11.3578 4.1081 8.02121
1 -7.82584 3.97364 11.6024
1 8.24793 3.7831 11.6927
1 -4.5179 6.46333 -12.8481
1 4.91266 6.37958 -12.2161
1 -11.6633 6.20549 -5.98656
1 11.6786 6.14675 -6.01939
1 -12.9235 6.30505 4.34784
1 12.9669 6.28045 4.58566
1 -3.84953 6.09956 13.538
1 4.66219 6.18148 12.5092
1 -1.70625 13.6309 -4.17689
1 2.30638 13.5957 -4.04705
1 -4.30258 13.5773 -2.19092
1 3.65663 13.6089 -2.23515
1 -3.83083 13.373 2.18412
1 3.99092 13.8376 2.03132
1 -2.16533 13.6483 3.68612
1 2.11031 13.7839 3.69506
1 -13.7704 -2.38816 -3.98376
1 -13.482 2.21022 -3.82866
1 -13.7715 -3.86043 -2.1779
1 -13.6284 3.67846 -2.21545
1 -13.6247 -3.96981 1.93598
1 -13.5798 3.77833 1.88817
1 -13.5817 -2.03546 4.12819
1 -13.6193 2.06242 3.60283
1 -6.2734 -5.90339 -11.6242
1 -6.29325 6.04576 -11.6655
1 -6.37281 -13.2471 -4.45754
1 -6.14207 11.5275 -6.10681
1 -6.08537 -11.4943 5.80759
1 -6.10963 11.8242 5.69433
1 -6.16671 -4.12787 13.0934
1 -5.75045 5.78662 11.7946
1 -4.12867 -8.0855 -11.3384
1 -4.12985 8.48652 -11.425
1 -4.01866 -11.595 -7.78425
1 -4.1851 11.3593 -7.94062
1 -4.38301 -11.5193 7.90537
1 -3.72842 11.6729 7.95893
1 -4.08431 -7.95381 11.5049
1 -4.08299 7.59398 11.7368
1 0.107958 -7.74724 -11.662
1 -0.175524 7.82434 -11.7608
1 0.0374584 -11.636 -7.79821
1 -0.0694162 11.7843 -7.76226
1 -0.234756 -11.8098 7.75394
1 -0.190529 11.7377 7.74629
1 -0.0173664 -7.7794 11.6655
1 -0.0290493 7.88605 11.7404
1 3.75 -8.3451 -11.5701
1 4.03477 8.28123 -11.3626
1 3.85154 -11.6746 -7.70717
1 4.24805 11.5613 -7.81653
1 3.94616 -11.6523 8.3449
1 4.01891 11.4003 8.04623
1 4.02991 -7.89223 11.2161
1 3.77844 8.08003 11.5547
1 6.62087 -5.08036 -12.1001
1 6.44159 4.77108 -12.4016
1 5.73797 -13.5037 -4.10916
1 6.00747 13.3007 -3.91729
1 6.3279 -12.1944 4.90246
1 6.49954 12.3049 4.72751
1 6.60905 -4.17217 12.3987
1 6.33915 4.7124 12.3285
1 13.4462 -1.98311 -4.29162
1 13.8009 2.00412 -4.17319
1 13.3999 -4.13212 -1.7581
1 13.8306 4.11627 -2.10012
1 13.6024 -3.88895 2.41059
1 13.4773 4.00763 1.79479
1 13.7652 -2.28312 3.88873
1 13.5691 1.84121 4.34044
