4102
 Atoms. Timestep: 4193
3 -4.01396 -3.53218 -22.6625
3 0.153757 -3.9412 -22.8515
2 4.08969 -3.98903 -22.818
1 -3.86066 -0.114257 -22.9493
3 -0.0590991 -0.176354 -22.9976
3 3.8408 -0.224279 -22.9618
3 -3.62655 3.67156 -22.8008
3 -0.0390542 3.5487 -22.8784
3 3.88401 3.77208 -22.7593
1 -7.87842 -11.3437 -19.0909
3 -3.88906 -11.6616 -19.0755
3 4.01768 -11.8567 -19.1141
2 7.72159 -11.7043 -18.7874
2 -7.86758 -7.71799 -19.067
3 -3.81814 -7.85383 -19.2349
1 0.108588 -7.84891 -19.3763
2 3.95523 -8.08729 -19.4306
3 7.50611 -7.99368 -19.215
3 -11.4667 -4.00792 -19.1209
3 -7.64757 -3.93368 -19.03
1 -3.72895 -3.94267 -19.4066
2 0.136021 -4.04249 -19.3494
1 4.01077 -3.98871 -19.4512
1 7.78758 -4.02208 -19.2606
1 11.5731 -3.83703 -19.2276
1 -11.523 -0.19816 -19.048
2 -7.54861 0.0805675 -19.165
1 -3.75167 -0.0403765 -19.2043
1 0.0790294 -0.0754138 -19.271
3 3.80054 0.0122962 -19.2787
3 7.85134 -0.0279418 -19.3092
1 11.7734 -0.178123 -19.0929
1 -11.5043 3.85355 -19.0784
3 -7.6954 3.82421 -19.17
2 -3.89512 3.71098 -19.3779
3 -0.045702 3.63329 -19.2096
2 3.79207 3.75108 -19.6043
3 7.70439 3.83044 -19.3188
3 11.3964 3.61552 -19.273
2 -11.426 7.51004 -19.1027
3 -7.84143 7.67329 -19.2168
3 -3.8249 7.55801 -19.2309
3 -0.0387983 7.54963 -19.4091
1 3.84395 7.52416 -19.2077
3 7.64344 7.55355 -19.2824
3 11.5125 7.54379 -18.6373
3 -3.9722 11.6021 -19.1305
3 -0.0359076 11.5416 -19.1466
1 4.12734 11.648 -19.5041
3 8.05018 11.3599 -19.0297
3 -7.89324 -15.2748 -15.3368
3 -4.26945 -15.4374 -15.6289
3 -0.0831616 -15.2573 -15.3669
3 3.76659 -15.4161 -15.2337
3 7.55746 -15.3372 -15.3638
2 -11.6056 -11.5778 -15.4405
1 -7.87255 -11.6311 -15.4287
1 -3.92223 -11.5907 -15.3998
2 0.0127418 -11.5599 -15.2942
2 4.00739 -11.5606 -15.2946
2 7.68024 -11.7213 -15.4039
3 11.5188 -11.6148 -15.4955
3 -11.4848 -7.66952 -15.3989
1 -7.82879 -7.77051 -15.6018
2 -3.90579 -7.87792 -15.5201
1 0.0635556 -7.87907 -15.3843
1 3.85185 -7.9669 -15.5259
2 7.78866 -7.76584 -15.5288
1 11.4285 -7.81763 -15.343
3 15.1548 -7.73771 -15.3567
2 -15.4214 -4.13391 -15.5753
1 -11.5227 -3.8177 -15.2404
2 -7.77165 -3.85656 -15.4967
2 -3.90352 -4.06206 -15.3862
2 0.104246 -4.00114 -15.42
2 3.95657 -4.20252 -15.5772
1 7.83652 -3.96367 -15.438
2 11.5424 -3.99795 -15.5045
2 15.2387 -4.09073 -15.5778
3 -15.4783 -0.0913921 -15.4808
2 -11.4655 -0.114172 -15.4481
2 -7.71686 -0.108489 -15.3923
3 -3.69464 0.00468425 -15.5467
2 -0.00116414 -0.125889 -15.4802
2 4.14835 0.0113787 -15.4839
2 7.74777 -0.157487 -15.5824
2 11.5818 -0.0750172 -15.4721
2 15.2858 -0.251074 -15.4447
3 -15.3029 3.86539 -15.3555
2 -11.5952 3.7355 -15.5044
2 -7.62546 3.84994 -15.2749
2 -3.73381 3.96172 -15.5454
1 -0.0966917 3.79091 -15.51
3 3.841 3.72698 -15.4313
1 7.78527 3.83322 -15.6669
2 11.6405 3.78572 -15.3676
3 15.2049 3.69946 -15.3118
3 -15.1746 7.9036 -15.4968
3 -11.5216 7.83741 -15.3148
2 -7.63887 7.86511 -15.3518
2 -3.88331 7.77427 -15.3663
2 0.167189 7.6698 -15.4658
1 3.75566 7.52504 -15.6396
3 7.69784 7.59587 -15.4704
2 11.3842 7.51462 -15.4263
2 15.1427 7.60489 -15.3589
3 -11.4741 11.412 -15.2265
1 -7.70941 11.4583 -15.2297
2 -3.9411 11.6347 -15.6308
2 -0.0399088 11.5349 -15.4102
1 3.97756 11.5443 -15.4957
3 7.49036 11.4782 -15.4156
3 11.4859 11.5134 -15.1816
3 -7.76376 15.227 -15.1525
1 -4.06691 15.7406 -15.4489
2 -0.212086 15.4989 -15.7183
3 3.86904 15.3344 -15.5322
2 7.80811 15.4068 -15.3799
3 -7.91138 -18.989 -11.6277
3 -3.84547 -19.128 -11.9427
3 0.0399714 -19.3519 -11.6728
2 3.97671 -19.0171 -11.7424
3 8.60711 -17.6917 -12.1201
3 -11.3625 -15.259 -11.5903
3 -7.70377 -15.3049 -11.5257
2 -3.73391 -15.425 -11.827
1 0.0164212 -15.5351 -11.7509
2 3.72201 -15.4104 -11.6313
2 7.67286 -15.5068 -11.459
2 12.5337 -15.0524 -11.6177
2 -15.4935 -11.8962 -11.9612
3 -11.5491 -11.5643 -11.6432
2 -7.78563 -11.5495 -11.6279
2 -3.7408 -11.5377 -11.5542
2 0.051735 -11.743 -11.5566
2 4.00401 -11.5561 -11.5978
2 7.78707 -11.7521 -11.5434
2 11.6946 -11.6902 -11.678
3 15.5077 -11.1859 -11.6068
2 -18.9003 -7.72821 -11.6415
2 -15.2088 -7.68279 -11.5934
3 -11.5442 -7.63812 -11.6111
2 -7.80852 -7.66155 -11.4865
1 -3.78122 -7.86802 -11.6831
1 0.21949 -7.64165 -11.6525
2 3.89677 -7.69949 -11.5353
1 7.85939 -7.90547 -11.4614
2 11.6545 -7.78025 -11.4828
1 15.57 -7.57704 -11.4483
3 -18.9696 -4.01082 -11.899
1 -15.4509 -4.04854 -11.8086
2 -11.4897 -3.94231 -11.674
1 -7.77224 -3.86257 -11.628
2 -4.01055 -3.94523 -11.6194
2 0.00305662 -3.93965 -11.454
1 3.81734 -3.80796 -11.48
2 7.82739 -4.01748 -11.6916
2 11.5458 -3.97441 -11.3857
3 15.5143 -3.89833 -11.5255
1 19.1198 -3.79942 -11.4898
2 -19.4152 0.198999 -11.572
2 -15.5159 -0.104373 -11.5874
1 -11.7432 -0.0628841 -11.5625
2 -7.80286 0.0878063 -11.4314
2 -3.96108 -0.0894317 -11.453
2 0.0190753 -0.120483 -11.5881
2 3.99391 -0.0411152 -11.7854
2 7.68159 -0.284112 -11.5109
2 11.5198 -0.23054 -11.5529
3 15.1866 -0.142189 -11.5574
3 19.1296 -0.058275 -11.6087
3 -18.9683 3.88584 -11.7185
2 -15.3495 3.94409 -11.5841
2 -11.6343 3.76681 -11.7775
2 -7.82923 3.85256 -11.6231
2 -4.08572 3.97832 -11.6956
2 -0.109249 3.61875 -11.5769
2 3.99358 3.60411 -11.6256
2 7.63926 3.75119 -11.713
1 11.4922 3.66842 -11.5752
1 15.3791 3.87824 -11.4943
3 18.9761 3.81406 -11.4794
3 -18.7891 7.92651 -11.6244
2 -15.2844 7.70678 -11.516
1 -11.4773 7.72389 -11.6486
2 -7.7456 7.67576 -11.5646
2 -3.83392 7.81404 -11.5325
1 -0.00106934 7.81926 -11.7171
2 3.96867 7.55691 -11.824
2 7.70902 7.60209 -11.5779
2 11.366 7.66445 -11.5285
3 15.29 7.64649 -11.5813
3 18.7784 7.64799 -11.3297
2 -15.356 11.6424 -11.7579
2 -11.5466 11.4914 -11.5665
3 -7.70448 11.4545 -11.6315
2 -3.97367 11.5803 -11.5245
1 0.0494262 11.6443 -11.6081
1 3.74913 11.4557 -11.7463
1 7.7771 11.5568 -11.572
3 11.4828 11.5073 -11.3875
1 15.1744 11.4336 -11.4375
2 -11.6103 15.2572 -11.4079
2 -7.82943 15.1721 -11.5436
2 -3.86311 15.4728 -11.7307
1 -0.0501444 15.5206 -11.6049
1 3.84403 15.3476 -11.6198
3 7.75106 15.3214 -11.6759
1 11.6088 15.1638 -11.5642
2 -7.89091 18.9251 -11.4344
2 -4.0519 19.3038 -11.6366
3 0.0820725 19.0704 -11.6565
3 3.91482 18.9774 -11.6125
3 -11.7241 -18.9047 -7.77673
2 -7.84884 -19.0173 -7.76146
3 -3.78397 -19.2897 -7.81755
1 0.0228524 -19.241 -7.92228
1 3.77424 -19.1701 -7.65377
2 7.51482 -19.3017 -7.56868
3 11.6541 -18.0886 -7.94446
2 -15.3371 -15.1646 -7.91537
3 -11.5019 -15.2054 -7.78263
2 -7.71195 -15.4557 -7.85159
1 -3.76386 -15.7065 -7.94445
3 -0.0562377 -15.5669 -7.80387
1 3.85982 -15.4174 -7.75608
2 7.8619 -15.515 -7.66015
2 11.5253 -15.4599 -7.58953
3 15.3923 -15.005 -7.69365
1 -18.98 -11.7557 -7.99407
3 -15.4166 -11.4867 -7.92201
2 -11.497 -11.6307 -7.75907
1 -7.76097 -11.3429 -7.75476
1 -3.85486 -11.5446 -7.77895
1 -0.0309091 -11.5379 -7.7388
2 3.87105 -11.8286 -7.65124
2 7.77531 -11.6383 -7.81865
2 11.7875 -11.5082 -7.78086
2 15.5814 -11.5367 -7.58238
3 18.8593 -11.312 -7.73996
2 -19.4874 -7.96647 -8.12006
3 -15.5763 -7.75015 -7.91045
2 -11.6293 -7.71114 -7.80139
2 -7.90448 -7.61399 -7.72839
1 -3.90051 -7.70161 -7.55418
1 0.0816182 -7.87627 -7.71227
1 3.79628 -7.80258 -7.7001
1 7.86938 -7.70601 -7.7784
1 11.7136 -7.75719 -7.80376
1 15.5881 -7.40969 -7.6247
3 19.125 -7.45672 -7.60622
3 -19.1779 -3.96691 -7.81558
2 -15.6759 -3.9807 -7.78238
2 -11.7982 -3.99856 -7.81677
2 -7.74577 -3.83216 -7.60511
2 -3.86666 -3.94299 -7.72074
1 0.149033 -3.99055 -7.58502
2 4.05761 -3.79392 -7.72952
2 7.71257 -3.87281 -7.71356
2 11.624 -3.88713 -7.82117
1 15.4815 -3.76759 -7.66401
2 19.304 -3.6525 -7.65165
2 -19.2649 0.0152519 -7.6402
2 -15.4146 0.0102857 -7.67088
1 -11.597 -0.0755296 -7.74186
1 -7.93123 -0.00421659 -7.77095
1 -3.9201 -0.0463134 -7.83277
3 0.0206886 -0.0814593 -7.73071
2 3.97265 -0.169488 -7.62441
1 7.66486 -0.000432808 -7.71023
1 11.6089 0.013026 -7.62843
2 15.3241 0.02207 -7.60678
1 19.2624 0.0105269 -7.72343
2 -19.3327 3.8157 -7.70673
2 -15.5185 3.81565 -7.74396
2 -11.8043 3.78987 -7.79809
2 -7.91738 3.95641 -7.68815
1 -4.02552 3.8386 -7.59754
2 -0.0340708 3.76788 -7.72832
2 3.92164 3.75914 -7.79738
2 7.54813 3.67408 -7.86179
2 11.5397 3.92844 -7.6065
1 15.4184 3.86443 -7.7158
1 19.3148 3.94439 -7.80858
3 -19.0702 7.99716 -8.01024
1 -15.5052 7.83666 -7.63027
1 -11.6532 7.75697 -7.82637
1 -7.69448 7.68431 -7.63403
2 -3.89972 7.78214 -7.7873
2 0.00647976 7.65935 -7.81004
2 3.69877 7.6087 -7.82987
1 7.68511 7.74139 -7.54504
2 11.5952 7.74758 -7.61701
2 15.2846 7.47128 -7.63998
3 19.0947 7.50063 -7.68415
3 -18.7634 11.6793 -7.93953
2 -15.3116 11.6065 -7.75303
1 -11.5998 11.5377 -7.65914
1 -7.80416 11.4801 -7.73263
1 -3.8581 11.5868 -7.74355
1 0.103496 11.768 -7.70691
2 3.90471 11.5953 -7.88225
1 7.74808 11.2732 -7.6985
3 11.5047 11.4697 -7.61094
3 15.3461 11.5227 -7.47423
2 18.822 11.3724 -7.54026
1 -15.2967 15.3964 -7.86402
2 -11.6028 15.3129 -7.72055
1 -7.63789 15.4127 -7.7158
1 -3.79426 15.4331 -7.66803
1 0.0382967 15.4414 -7.87636
1 3.90058 15.4256 -7.84081
1 7.68319 15.1657 -7.79997
3 11.4498 15.2093 -7.63124
3 15.3553 15.0612 -7.56799
3 -11.4882 18.8345 -7.87948
1 -7.6689 19.2065 -7.74564
1 -3.74198 19.1245 -7.66294
1 0.0110231 19.0743 -7.69967
3 3.79247 19.1501 -7.84623
3 7.62899 18.9939 -7.77593
3 11.5706 18.7959 -7.71119
3 -0.0642329 22.5611 -7.51657
3 -3.95626 -22.8595 -3.79889
3 -0.0573288 -22.7585 -4.01074
3 3.79975 -22.8257 -3.89419
3 -11.707 -18.9118 -4.11589
1 -7.571 -19.2549 -4.05255
2 -3.81199 -19.1932 -3.98034
1 0.00240447 -19.2745 -3.95357
3 3.78305 -19.2252 -3.66242
2 7.70226 -19.1607 -3.91314
2 11.4467 -19.1836 -4.04984
1 -15.2974 -15.2756 -4.0264
1 -11.6455 -15.4756 -3.87868
2 -7.86313 -15.4912 -3.96878
1 -3.89347 -15.5278 -3.9499
2 -0.0712859 -15.5611 -3.78268
2 3.94222 -15.3556 -3.79754
1 7.62578 -15.5078 -3.89264
1 11.5078 -15.3863 -3.87668
3 15.3281 -15.3007 -3.8604
3 -19.2455 -11.4061 -4.06177
3 -15.4493 -11.5275 -4.07123
2 -11.6508 -11.4537 -3.82177
2 -7.77136 -11.4848 -3.8174
2 -3.99749 -11.6875 -3.80211
3 -0.07203 -11.6408 -3.93001
1 3.85919 -11.656 -3.6399
2 7.95586 -11.5217 -4.10137
2 11.7475 -11.6568 -3.728
2 15.526 -11.6949 -3.69388
3 19.0975 -11.4962 -3.81967
2 -19.2145 -7.7853 -3.97579
2 -15.7199 -7.79754 -3.9649
1 -11.8505 -7.7176 -3.78428
3 -7.76609 -7.64762 -3.87241
2 -4.01069 -7.77158 -3.81755
2 -0.208396 -7.70652 -3.73588
2 3.9735 -7.74324 -3.90438
1 7.74952 -7.70698 -3.675
2 11.8553 -7.64824 -3.97697
2 15.7964 -7.71537 -3.72722
3 19.284 -7.73069 -3.80831
3 -22.8776 -3.80711 -3.61121
3 -19.3299 -3.99818 -3.83721
1 -15.6606 -3.85127 -3.94301
2 -11.8399 -4.07065 -3.70958
2 -7.65644 -3.67804 -3.75508
1 -3.91035 -3.99211 -3.86864
2 -0.203476 -3.7536 -3.85341
2 3.85646 -3.94767 -3.82884
2 7.77746 -4.00044 -3.64626
1 11.7425 -4.02686 -3.86004
1 15.4652 -3.8573 -3.90173
1 19.3891 -3.78188 -3.80916
3 -22.8571 0.0102795 -3.71809
2 -19.4529 -0.0796655 -3.97723
2 -15.5995 0.0785527 -3.8497
2 -11.7066 0.0701967 -3.74235
1 -7.99203 -0.00440305 -3.7835
2 -3.94178 0.190928 -3.83683
1 -0.0308481 -0.0658392 -3.88709
1 3.60389 -0.192793 -3.91312
2 7.66693 -0.0478678 -3.78138
1 11.751 -0.0221599 -3.90423
2 15.5313 0.161318 -3.81524
2 19.421 0.156667 -3.61171
3 22.9586 0.287188 -3.91816
1 -19.4531 3.91567 -3.97337
1 -15.6805 3.89229 -3.79574
1 -11.8131 3.9972 -3.78008
1 -7.91636 3.8476 -3.78395
1 -4.04324 3.82984 -3.83642
1 -0.182749 3.76242 -3.83326
3 3.79246 3.85565 -3.8535
2 7.60298 3.70626 -3.82629
3 11.2736 3.8198 -3.77674
1 15.4277 3.79799 -3.72949
3 19.138 3.75058 -3.86764
3 22.8371 4.05185 -3.91265
2 -19.1821 7.75362 -3.97189
2 -15.6399 7.78887 -3.89767
2 -11.6806 7.74901 -4.0331
3 -7.78172 7.52039 -3.89928
2 -4.0749 7.85297 -3.72308
2 0.0675545 7.76932 -3.69066
2 3.82527 7.57946 -3.78876
1 7.62093 7.58643 -3.90592
2 11.4724 7.82361 -3.76567
2 15.3877 7.73726 -3.88456
3 19.1362 7.7589 -3.76251
2 -19.3119 11.6398 -3.96627
1 -15.529 11.7693 -3.81513
1 -11.4799 11.7043 -3.95732
1 -7.90255 11.6816 -3.89284
3 -3.98991 11.7051 -4.0496
1 0.0317025 11.6599 -3.94382
1 3.82958 11.5536 -3.78083
2 7.59664 11.7168 -3.65838
1 11.559 11.5085 -3.79442
2 15.386 11.6862 -3.78448
3 19.0338 11.4679 -3.69978
1 -15.6183 15.5945 -3.72231
1 -11.59 15.6037 -3.79032
1 -7.63353 15.4025 -3.89816
2 -3.87078 15.4687 -3.88083
1 0.0596214 15.3233 -3.92479
2 3.85751 15.4386 -3.85548
2 7.73757 15.3419 -3.84641
2 11.5007 15.3762 -3.76675
2 15.2268 15.5263 -3.88763
3 -11.2118 19.2646 -3.74617
2 -7.48263 19.3114 -3.8571
2 -3.58021 19.1445 -3.66095
1 0.108552 19.0048 -3.89248
1 3.85455 19.3578 -3.85456
2 7.50884 19.1342 -3.78107
2 11.4267 19.0842 -3.9645
3 -3.39252 22.5346 -3.86717
1 0.0587075 22.8153 -3.91278
3 3.76285 22.7491 -3.86525
2 -3.86882 -22.9219 -0.0513114
3 -0.187327 -22.9548 0.0734807
3 4.03766 -23.0548 0.0803957
3 7.62099 -22.6926 0.23299
2 -11.7482 -19.1206 -0.251688
1 -7.7507 -19.3993 -0.151564
3 -4.07737 -19.2803 -0.0536971
2 -0.19225 -19.3805 0.201668
3 3.86915 -19.2793 0.138062
2 7.71081 -19.2175 0.0298168
3 11.7461 -19.2232 0.0363952
3 -15.5412 -15.495 -0.116869
1 -11.7544 -15.4907 0.0241802
3 -7.78156 -15.6101 0.0409382
2 -3.89589 -15.5242 0.0393364
1 -0.0215817 -15.5164 0.0204532
1 3.77888 -15.5147 0.0883942
1 7.79164 -15.703 -0.043734
1 11.5438 -15.4725 -0.156555
3 15.426 -15.5105 -0.0421666
3 -19.2249 -11.666 -0.110452
2 -15.6596 -11.6863 -0.130329
1 -11.7693 -11.7122 -0.211852
2 -7.60218 -11.609 -0.145303
2 -3.73837 -11.6062 0.00448435
1 -0.00372464 -11.5352 0.0394758
2 3.90549 -11.5873 0.100926
1 7.8353 -11.5969 0.21233
2 11.6933 -11.5615 -0.0370104
3 15.4904 -11.7756 0.179671
2 19.1927 -11.8825 0.156914
2 -19.1743 -7.7714 -0.0887892
1 -15.519 -7.82923 0.0541943
1 -11.7251 -7.65837 0.11327
2 -7.76642 -7.72931 0.118741
1 -3.91919 -7.83055 0.00908099
2 0.125996 -7.80965 0.0106116
2 3.91097 -8.01563 0.0665075
1 7.93586 -7.87639 -0.0368746
2 11.779 -7.83737 -0.139081
3 15.6462 -7.96289 0.0542692
1 19.2883 -7.73455 0.143895
3 -22.7959 -4.07438 -0.0551061
1 -19.3816 -4.01585 0.109917
1 -15.4444 -3.68499 0.170452
2 -11.7132 -3.84268 0.185093
2 -7.86066 -3.86406 0.0951999
2 -3.90517 -3.9266 0.0589658
3 -0.164014 -3.91616 -0.0042608
2 3.72257 -3.96325 -0.0300069
1 7.76204 -3.80625 0.160113
1 11.7809 -4.0815 -0.0133265
2 15.4439 -3.70466 -0.113224
1 19.1672 -3.85633 0.117372
3 22.7475 -3.86072 0.163239
3 -23.0478 -0.0371017 0.0575314
1 -19.2672 -0.000128605 0.217832
1 -15.4802 0.0384032 0.205467
2 -11.5928 -0.00688339 0.157761
2 -7.93757 0.0567283 0.1895
2 -4.20922 -0.0871502 0.063807
1 -0.142891 -0.166013 0.0949461
2 3.63586 -0.071944 -0.184747
1 7.8425 -0.278104 0.0810321
1 11.6355 0.049549 -0.0352985
2 15.5909 0.0668032 0.119897
3 19.3414 0.0657548 0.108992
2 22.9203 0.229368 0.0642185
1 -22.7438 3.834 0.2771
2 -19.3783 4.01859 0.136374
1 -15.4206 4.13325 0.0738117
2 -11.6495 3.95794 0.134106
2 -7.71985 3.8896 0.0700439
1 -3.96077 3.85363 0.0522678
1 -0.00569523 3.92587 0.0740549
1 3.82107 3.85387 0.0178359
2 7.69694 3.73615 -0.0965145
1 11.5756 3.93504 0.0228566
3 15.494 3.91256 0.0853882
1 19.2371 3.96803 0.0513299
2 22.8484 4.20178 -0.170485
2 -19.2545 7.8007 0.0534339
2 -15.495 8.04115 -0.0313742
2 -11.7278 7.81399 -0.159384
2 -7.73365 7.78947 -0.0843687
1 -3.84351 7.90907 0.0760149
1 -0.0382607 7.67378 0.0542109
2 3.65762 7.74092 0.0738061
2 7.67009 7.63642 -0.0228364
1 11.6382 7.7018 0.0338238
2 15.4972 7.88372 0.0399431
3 19.326 7.77804 0.065934
3 -19.1983 11.7015 -0.0827897
1 -15.5733 11.7418 -0.0750977
2 -11.8173 11.6539 -0.000836819
2 -7.85171 11.6398 -0.0839956
2 -4.0112 11.6682 0.10509
1 0.0527213 11.6629 0.15438
1 3.81177 11.4619 0.253849
3 7.66636 11.5306 0.115278
2 11.5339 11.6889 -0.0483211
1 15.3492 11.7369 0.00414665
3 19.0924 11.6843 -0.0563442
2 -15.475 15.5548 0.198774
1 -11.6737 15.5768 0.127826
1 -7.60402 15.4763 0.101567
2 -3.77313 15.491 -0.0709475
1 0.226578 15.4736 -0.0157184
1 3.80591 15.4941 -0.0277586
1 7.6852 15.4529 0.134079
3 11.5823 15.4909 0.0290849
3 15.2652 15.3845 0.0193034
3 -11.5865 19.1826 0.109656
1 -7.53961 19.1763 0.195738
2 -3.75463 19.2655 -0.111505
3 0.0241554 19.3136 0.0963435
2 3.8775 19.4399 0.111873
3 7.67792 19.1443 0.21683
3 11.3914 19.3148 -0.0562407
3 -7.64161 22.7425 0.254507
2 -3.67507 22.8246 0.0407792
3 3.76172 22.7081 0.15887
2 -4.0622 -22.8167 4.02172
3 -0.220475 -22.9742 3.8821
3 3.78161 -22.8838 3.93755
1 -11.8062 -19.2638 3.9594
3 -7.63644 -19.3059 3.70795
3 -3.92326 -19.2965 3.88198
1 -0.149327 -19.4035 3.76394
3 3.67811 -19.2734 3.91717
2 7.68592 -19.1021 3.9272
3 11.4078 -19.1473 3.83283
1 -15.389 -15.4388 3.84744
1 -11.6761 -15.7417 3.84372
2 -7.83863 -15.7276 3.86879
1 -3.96334 -15.468 3.85745
1 0.0463735 -15.5294 3.72143
2 3.73056 -15.512 3.77818
3 7.71528 -15.5373 3.92344
1 11.5581 -15.5052 3.8366
2 15.4299 -15.626 3.99436
3 -19.0593 -11.5118 3.78132
1 -15.4032 -11.7376 4.07423
2 -11.7039 -11.7126 3.88355
2 -7.94608 -11.8566 3.92506
2 -4.06863 -11.8163 3.75247
1 -0.101725 -11.5751 3.86343
2 3.86479 -11.6144 3.79199
1 7.85924 -11.6309 3.84725
1 11.7222 -11.6842 3.90186
2 15.4451 -11.7612 3.89741
3 18.8724 -11.912 4.05729
2 -19.1944 -8.01592 3.81113
1 -15.4899 -7.87085 4.00472
2 -11.745 -7.73549 3.83141
2 -7.8972 -7.80053 3.86786
2 -4.0173 -7.77579 3.87389
2 0.10147 -7.76807 4.00783
2 3.9539 -7.85722 3.85474
1 7.84286 -7.77042 3.89402
2 11.6441 -7.76809 3.84252
1 15.5075 -7.78058 3.73163
2 19.1546 -7.66627 4.14192
2 -19.2939 -3.9445 4.09142
1 -15.4779 -4.03276 3.91081
1 -11.7027 -4.00047 4.04473
1 -7.86744 -4.02567 3.88142
2 -3.93146 -4.02947 4.02882
1 -0.217134 -3.95574 4.02361
2 3.76275 -3.91366 3.85081
2 7.78391 -3.92811 3.89224
2 11.679 -3.79501 3.79159
2 15.4011 -3.90261 3.79007
1 19.1665 -3.81903 3.92905
2 22.7812 -3.61868 3.92413
3 -22.9104 -0.0274101 4.00662
2 -19.5015 0.0582656 3.86875
1 -15.568 0.111352 4.00268
2 -11.5689 -0.0196428 4.03274
2 -7.73805 -0.131629 3.93794
2 -3.8815 -0.0508757 3.93905
2 -0.0699499 -0.00531455 3.91309
1 3.82934 0.0613903 3.87798
1 7.74076 -0.0397221 3.86508
2 11.6574 0.0348166 3.74821
2 15.3771 0.227356 3.72184
1 19.1407 0.195429 3.8607
3 22.7648 0.283129 3.71405
3 -22.7343 4.13331 4.06663
2 -19.3716 3.88445 3.97279
2 -15.5967 3.99397 3.89178
1 -11.6399 3.63049 4.05475
2 -7.65499 3.72687 4.01003
3 -3.90989 3.86322 4.09004
2 -0.0319325 4.02775 3.73184
1 3.94393 3.94135 3.96843
2 7.81866 3.79276 4.00944
2 11.6351 3.85991 3.89569
1 15.4454 3.98815 3.73621
1 19.1935 3.92092 3.8508
3 22.7922 3.89496 3.61713
2 -19.3297 7.98093 3.92349
2 -15.5435 7.91552 3.90331
2 -11.4788 7.70593 3.87964
2 -7.79419 7.77975 3.96693
2 -3.94877 7.70036 3.87787
1 -0.165873 7.70402 3.94452
2 3.74245 7.71644 3.9181
1 7.75435 7.72055 3.79005
1 11.5128 7.78114 3.91137
1 15.6213 7.65692 4.03545
3 19.117 7.75886 3.69235
3 -19.0231 11.7888 3.95325
2 -15.5738 11.642 3.96852
2 -11.4815 11.7428 3.953
1 -7.7858 11.6178 3.84407
2 -3.95157 11.744 4.05838
1 0.110659 11.5871 4.01149
1 3.65098 11.6063 3.97524
2 7.78162 11.6073 3.85148
2 11.6231 11.7675 3.85016
3 15.4479 11.5869 3.84193
1 19.135 11.6725 4.08447
1 -15.4166 15.6144 3.91489
1 -11.6046 15.5104 3.76349
1 -7.63934 15.4942 3.88372
1 -3.75149 15.5302 4.04852
2 -0.0780447 15.5697 4.05013
2 3.7595 15.3489 3.96839
1 7.63393 15.5242 3.93512
1 11.4355 15.4505 3.77542
3 15.3125 15.3059 3.83254
3 -11.393 19.11 3.88014
3 -7.74092 19.2361 3.87003
2 -3.80965 19.4592 3.95308
2 -0.0367217 19.3359 3.86453
1 3.89832 19.3471 3.88004
2 7.54696 19.249 4.08644
3 11.5115 18.944 3.88536
3 -4.15366 22.684 3.85949
2 0.107712 22.9603 3.78476
3 3.93334 22.6838 3.94759
3 -11.9269 -18.9482 8.06652
3 -7.80093 -19.206 7.66958
1 -3.85607 -19.226 7.64553
2 -0.184849 -19.3699 7.6485
3 3.91119 -19.2902 7.71981
3 7.82587 -19.2327 7.75724
1 11.5707 -18.902 7.84609
1 -15.6563 -15.4424 8.05012
1 -11.6752 -15.4865 7.7969
2 -7.7994 -15.4636 7.69005
2 -4.0129 -15.6457 7.64444
1 -0.145642 -15.4631 7.71301
2 3.70223 -15.5969 7.79953
3 7.80142 -15.3916 7.69886
3 11.5106 -15.3802 7.67725
3 15.3282 -15.3514 7.68131
3 -18.9215 -11.5038 7.76393
1 -15.2768 -11.5291 7.67211
1 -11.6667 -11.5155 7.73503
2 -7.868 -11.6908 7.79551
2 -3.92357 -11.6274 7.54027
1 0.0172452 -11.7283 7.6661
1 3.88679 -11.6888 7.6863
1 7.63154 -11.5483 7.78347
2 11.7502 -11.7598 7.59948
3 15.2583 -11.4769 7.66796
3 18.9202 -11.3262 8.19626
3 -19.1427 -7.82732 7.65786
2 -15.415 -7.75325 7.76831
2 -11.6872 -7.79341 7.63073
3 -7.93124 -7.86951 7.711
1 -4.04502 -7.82607 7.62558
1 0.0185107 -7.9591 7.53742
2 3.94443 -7.94432 7.74194
3 7.57746 -7.83082 7.70667
3 11.6029 -7.86146 7.5919
2 15.4333 -7.71037 7.67469
2 19.2625 -7.60503 8.12092
3 -19.4427 -3.93992 7.7207
2 -15.4981 -3.927 7.73905
2 -11.6787 -3.91386 7.91983
1 -7.97343 -3.85931 7.77563
1 -3.94086 -3.87661 7.56563
1 -0.0776933 -3.80868 7.87281
2 3.97463 -3.86091 7.63693
1 8.14825 -3.75851 7.69843
1 11.8308 -3.8882 7.57811
2 15.3294 -3.77558 7.62489
3 19.061 -3.81524 7.55773
3 -22.5873 -0.0566122 8.20602
2 -19.3395 0.186576 7.93082
1 -15.3799 0.00166178 7.76422
2 -11.5386 -0.0651757 7.79979
1 -7.82456 -0.0595616 7.7899
2 -3.82592 0.157166 7.92132
2 -0.098533 -0.126423 7.88073
2 3.87683 0.190795 7.58985
1 7.89953 -0.0672859 7.72584
2 11.6947 0.182601 7.69512
2 15.2487 0.0927928 7.7503
1 19.1337 0.19615 7.57351
3 -19.3427 3.93642 7.93431
2 -15.49 3.96513 7.76307
2 -11.6978 3.82064 7.91331
2 -7.83908 3.74847 7.92095
1 -4.06008 3.91086 7.85608
3 0.0471634 3.80352 7.82777
2 4.01517 3.92186 7.44268
1 7.832 3.90685 7.9072
1 11.6156 3.9142 7.72185
3 15.402 3.9475 7.64669
3 19.0946 3.81232 7.41743
3 -19.1578 7.91554 7.9274
3 -15.4965 7.71673 7.76038
2 -11.8369 7.64567 7.80262
1 -7.76638 7.87758 7.81507
2 -3.81493 7.82376 7.94591
2 -0.109779 7.76721 7.73217
2 3.84364 7.8631 7.67576
1 7.70679 7.74209 7.76595
1 11.6344 7.71754 7.67779
1 15.4251 7.7533 7.62251
1 19.1469 7.98654 7.7761
3 -19.0225 11.5563 8.02464
3 -15.4776 11.6786 7.70299
3 -11.5599 11.6167 7.71178
2 -7.73702 11.6715 7.74465
2 -3.80036 11.6563 7.61692
1 -0.123986 11.6315 7.75227
2 3.77095 11.6411 7.87569
2 7.72084 11.3915 7.95139
2 11.5609 11.6128 7.60117
3 15.4811 11.7757 7.78075
1 -15.2705 15.5287 8.04902
1 -11.5637 15.424 7.92898
2 -7.69399 15.3527 7.77883
3 -3.74093 15.5634 7.83023
1 0.0286277 15.5887 7.74906
2 3.83836 15.4892 7.88654
1 7.5824 15.3558 7.75479
1 11.5977 15.5328 7.68382
3 15.1457 15.5639 7.57214
3 -11.3854 19.1102 7.92581
3 -7.53082 19.2709 7.67629
3 -3.80755 19.4545 7.67196
2 0.0183559 19.4863 7.70983
2 4.01293 19.313 7.98867
3 7.672 19.0052 7.97908
3 11.6176 19.0252 7.70726
2 -7.8189 -19.0893 11.4076
3 -4.14615 -19.0341 11.4864
3 -0.219784 -19.1997 11.3437
3 3.63502 -19.2344 11.5194
2 7.9608 -19.0546 11.5453
3 -11.7571 -15.2648 11.6533
1 -7.80379 -15.4455 11.5849
2 -3.95313 -15.4599 11.4488
2 -0.132205 -15.5462 11.4907
2 3.80885 -15.6119 11.5151
1 7.76664 -15.4269 11.5284
3 11.6158 -15.2353 11.6098
2 -15.5033 -11.5065 11.5635
1 -11.5598 -11.6548 11.7016
1 -7.77574 -11.4271 11.4533
2 -3.97948 -11.4358 11.5474
2 -0.19637 -11.6327 11.456
2 3.91939 -11.6812 11.6023
2 7.76626 -11.681 11.5287
2 11.568 -11.6319 11.637
2 15.1938 -11.5539 11.6218
3 -19.036 -7.71331 11.6387
3 -15.4237 -7.64303 11.7169
2 -11.5864 -7.61428 11.812
2 -7.95913 -7.74303 11.5966
2 -3.98713 -7.71813 11.7175
2 0.0864949 -7.70153 11.2831
2 3.79309 -7.78437 11.5401
2 7.74093 -7.70111 11.748
1 11.6877 -7.85547 11.5871
1 15.2685 -7.75097 11.6466
3 -18.7704 -3.73563 11.5382
2 -15.4617 -3.75454 11.7234
1 -11.6395 -3.91084 11.6868
2 -7.76246 -3.78626 11.68
2 -3.88746 -3.88868 11.6005
2 0.161277 -4.14706 11.6025
1 3.99547 -3.79609 11.3695
2 7.90882 -3.90516 11.5969
2 11.6045 -3.83009 11.4957
1 15.3678 -3.94108 11.7029
1 19.0709 -3.95934 11.4145
3 -18.9367 -0.00204054 11.6562
2 -15.2572 0.00487289 11.7341
2 -11.6572 0.0557606 11.7122
2 -7.77217 -0.0306077 11.6352
2 -3.99433 0.0752609 11.704
2 -0.00104618 0.0298607 11.6541
2 3.90182 -0.0902513 11.675
2 7.83068 -0.0996911 11.7004
2 11.612 0.161851 11.5525
1 15.5134 0.200353 11.3969
3 19.2093 -0.00808148 11.4307
3 -19.0974 4.01343 11.8318
3 -15.4292 4.04301 11.4876
2 -11.5602 3.9468 11.5959
2 -7.63869 3.81205 11.8447
2 -3.83823 3.83287 11.673
2 0.0519736 3.79258 11.5435
1 3.91731 3.84692 11.6229
2 7.7959 3.8556 11.8278
1 11.8252 3.92487 11.5112
2 15.5282 3.94866 11.5855
2 19.2287 3.84402 11.1784
2 -15.2994 7.78195 11.618
2 -11.5046 7.81273 11.5738
2 -7.57817 7.75441 11.466
1 -3.86905 7.75319 11.8153
2 -0.053722 7.70373 11.6185
1 3.81637 7.71642 11.5286
1 7.77155 7.7758 11.6725
3 11.6698 7.82072 11.5184
3 15.5945 7.85846 11.64
1 -15.5935 11.7298 11.8266
1 -11.5226 11.5097 11.5714
1 -7.65552 11.6038 11.6359
1 -3.71699 11.8865 11.745
3 0.0292173 11.7036 11.7287
1 3.80918 11.5556 11.6563
1 7.84841 11.6149 11.6187
3 11.7398 11.7238 11.5303
2 15.4541 11.8179 11.532
3 -11.416 15.3275 11.4762
2 -7.69701 15.5346 11.5212
2 -3.83515 15.4794 11.5716
1 0.142485 15.3984 11.7067
3 3.81402 15.4716 11.7004
3 7.61741 15.2823 11.6297
2 11.5494 15.4948 11.5566
1 -7.7062 18.8841 11.7149
3 -3.81718 19.3162 11.2907
2 0.381161 19.23 11.8209
3 3.96571 19.1134 11.8367
3 7.65691 18.9671 11.7997
1 -7.83068 -15.1833 15.3603
3 -3.92914 -15.3431 15.439
1 -0.130315 -15.4245 15.1903
3 3.51197 -15.4353 15.1291
1 7.87742 -15.3416 15.3307
3 -11.5607 -11.4513 15.2379
2 -7.8159 -11.7227 15.455
1 -3.82917 -11.6265 15.3343
1 -0.0427334 -11.7123 15.2072
2 3.94425 -11.6798 15.5502
2 7.81526 -11.5409 15.1731
3 11.513 -11.4695 15.3358
3 -15.4108 -7.71801 15.4095
1 -11.6222 -7.60241 15.4575
3 -7.72305 -7.73439 15.5382
1 -3.9307 -7.74023 15.4512
2 -0.0257548 -7.69004 15.3062
2 3.88935 -7.59448 15.253
2 7.85517 -7.71119 15.5018
1 11.7287 -7.8055 15.5218
3 15.2926 -8.03446 15.1373
2 -15.3499 -3.83428 15.357
2 -11.6389 -3.80906 15.3457
3 -7.57082 -3.69202 15.5887
2 -3.78329 -3.70543 15.4863
2 0.0504031 -3.85831 15.3141
2 3.94899 -3.85581 15.354
2 7.78635 -3.69837 15.2225
3 11.6347 -3.82171 15.428
3 15.4217 -3.84502 15.1722
2 -15.4067 0.148477 15.697
1 -11.5903 0.12828 15.6735
2 -7.76287 -0.00121755 15.6165
2 -3.94656 0.0809977 15.3977
3 0.120297 -0.0487847 15.3985
2 3.99851 0.0691461 15.3691
3 7.84245 0.0574781 15.395
3 11.672 0.162363 15.3828
3 15.427 -0.114209 15.1822
3 -15.2792 4.21224 15.4593
2 -11.6703 3.98436 15.4831
2 -7.72886 3.9169 15.5781
2 -3.78392 3.92945 15.5173
1 0.113767 3.90054 15.4785
1 4.00619 3.86931 15.5417
2 7.88387 3.98009 15.5516
3 11.7521 3.87282 15.3783
1 15.853 4.10712 15.4195
3 -15.2061 7.97919 15.5027
2 -11.6385 7.85335 15.5287
1 -7.80472 7.72011 15.466
2 -3.95367 7.75279 15.6737
2 0.0980979 7.9174 15.3938
1 3.90112 7.73786 15.4518
2 7.82526 7.79924 15.2967
3 11.8146 7.84698 15.2759
1 15.6419 7.93398 15.0354
3 -11.3316 11.7961 15.2091
3 -7.75029 11.6227 15.2277
1 -4.01559 11.7287 15.4966
2 0.0971321 11.5764 15.508
3 4.01347 11.611 15.2767
2 7.87633 11.5016 15.2985
2 11.6372 11.6606 15.281
2 -7.83822 15.336 15.3054
2 -4.15927 15.6221 15.401
1 0.209661 15.4911 15.7231
2 4.0422 15.241 15.3388
3 7.72783 15.1633 15.3508
3 -7.85976 -11.5375 18.9665
3 -3.68012 -11.5806 18.9477
3 -0.0904672 -11.6366 19.0532
2 3.94197 -11.8221 18.9861
3 7.61895 -11.7015 18.8984
2 -7.93061 -7.92006 19.4065
2 -3.89038 -7.78155 19.1188
2 0.013892 -7.83214 19.2164
2 3.7695 -7.87598 19.0545
3 11.6302 -7.71176 18.8404
3 -11.2476 -3.71752 19.0518
2 -7.71605 -3.64891 19.2279
2 -3.63288 -3.80949 19.3053
2 -0.000356548 -3.77887 19.296
2 3.79809 -4.03615 19.2864
1 7.84227 -3.86836 19.0969
1 11.3157 -3.55792 18.9718
3 -11.437 0.106348 19.2318
2 -7.74153 0.108633 19.2835
3 -3.84414 -0.0240209 19.2531
1 0.00250846 -0.0118033 19.1487
3 3.95115 -0.0749788 19.2041
1 7.75597 0.0225997 19.0758
2 11.8831 0.138249 19.0069
2 -11.5133 3.89083 19.2544
1 -7.6675 3.98821 19.3122
2 -3.81893 3.85776 19.3968
2 -0.0687572 3.56273 19.2008
1 4.02109 4.00949 19.3715
1 7.68069 3.88282 19.1442
3 -11.5448 7.749 19.0895
1 -7.7156 7.79685 19.2659
1 -3.9405 7.80423 19.1716
3 0.0041547 7.81459 19.4468
2 4.11769 7.72327 19.2604
2 7.85327 7.67756 19.0287
2 11.6372 7.86147 18.9509
3 -7.79338 11.528 19.0536
2 -3.98262 11.6171 19.2858
2 0.138365 11.7939 19.1826
3 4.1817 11.5885 19.0428
3 7.85099 11.3431 18.757
3 -3.96829 -3.63135 22.9513
2 -0.0434545 -3.90867 22.8147
3 3.89558 -3.91281 22.7313
1 -7.50398 0.0312553 22.8811
3 -3.96696 0.0736799 22.9103
3 -0.0827365 -0.210567 22.7836
2 3.86682 -0.0622875 22.8254
1 7.58521 -0.002974 22.4525
3 -3.7525 3.79448 22.6089
3 0.0551633 3.79682 22.7327
3 3.7882 3.62955 22.8044
3 0.131936 7.35233 22.1426
1 2.08524 -5.76357 -22.7488
3 -5.80741 -1.97815 -22.6784
3 -1.92598 -2.12306 -22.9868
2 1.78171 -1.98886 -23.1202
1 5.72396 -2.02547 -23.1308
3 -5.65564 1.95095 -22.742
3 -1.96307 1.7016 -23.0723
3 2.13132 1.87887 -22.9099
2 5.54332 1.95472 -22.8557
3 -1.93203 5.46398 -22.8329
3 1.87258 -13.3894 -19.007
3 5.96277 -13.631 -19.0155
3 -9.70875 -9.66227 -18.6843
3 -6.04616 -9.5901 -19.2282
3 -1.62192 -9.77142 -19.1466
2 2.12448 -9.98804 -19.3344
1 5.89927 -10.0018 -19.2647
3 9.28068 -9.71116 -18.9242
3 -13.2345 -6.13537 -18.8512
2 -9.61043 -5.76688 -19.1566
2 -5.8567 -5.86804 -19.1459
1 -1.85123 -5.89523 -19.2987
2 2.05179 -5.9897 -19.3354
2 5.94811 -5.96058 -19.3202
3 9.73824 -5.82585 -19.0993
3 13.0804 -6.07124 -18.8741
3 -13.3892 -2.08479 -19.1545
1 -9.59165 -2.06904 -19.0612
2 -5.83115 -2.08759 -19.2543
2 -1.88229 -2.09142 -19.317
1 2.00059 -1.90733 -19.2582
2 5.8978 -2.06395 -19.377
1 9.74884 -2.00139 -19.4108
3 13.5245 -1.98445 -18.8754
2 -13.0952 1.75263 -19.2012
2 -9.51817 1.9727 -18.983
3 -5.77982 1.89439 -19.1691
3 -1.90282 1.80258 -19.2233
1 1.94514 1.9083 -19.3651
3 5.80223 1.86733 -19.3287
2 9.75709 1.69901 -19.5614
2 13.6673 1.94445 -19.127
3 -13.3083 5.6997 -19.0002
3 -9.47151 5.64953 -19.1866
2 -5.67685 5.72412 -19.2267
3 -2.19385 5.59695 -19.189
1 1.88867 5.55399 -19.4125
2 5.88051 5.7005 -19.3239
1 9.63573 5.71637 -19.09
2 -9.55672 9.7578 -19.0927
1 -5.89992 9.74537 -19.3152
2 -1.97362 9.38929 -19.2317
2 1.92821 9.60067 -19.1377
2 5.89821 9.71857 -19.4299
3 9.85608 9.48869 -18.8611
3 -5.89416 13.428 -18.9414
3 -1.99698 13.3731 -19.088
3 2.01479 13.1832 -19.211
1 -6.17388 -17.1812 -15.3572
3 -2.1581 -17.1432 -15.0268
3 2.00282 -17.0106 -15.3517
3 5.66115 -17.2169 -15.3813
3 -9.65872 -13.4482 -15.4106
3 -5.88622 -13.4152 -15.3774
3 -1.84506 -13.3083 -15.397
1 1.97374 -13.5487 -15.4108
3 5.76163 -13.5862 -15.2194
3 9.55986 -13.5827 -15.3178
3 -13.3407 -9.53816 -15.3646