3643
 Atoms. Timestep: 4193
3 3.88074 -3.58663 -22.5415
3 -0.0122862 3.83265 -22.51
3 -5.20199 -11.3967 -17.4643
2 -0.301076 -11.4309 -18.718
2 3.78538 -11.5951 -18.7362
3 7.96842 -12.5484 -17.0253
3 -11.8175 -7.85644 -18.3776
3 0.179862 -7.62963 -19.4556
3 3.95196 -7.83112 -19.1835
3 7.74926 -7.70909 -18.988
3 9.57561 -5.86252 -19.0732
3 -11.4949 -4.13669 -19.1575
3 -4.02901 -4.00652 -19.4259
2 -0.0673947 -3.68687 -19.4172
1 3.69035 -3.7008 -19.4782
2 7.8074 -3.78755 -19.236
2 11.4119 -3.70461 -19.2407
3 -7.87773 0.23196 -19.0153
3 -4.08587 -0.0459592 -19.122
1 0.128993 0.0775446 -19.2172
3 3.72519 0.287265 -19.1715
1 7.6563 0.0366393 -19.1781
1 11.5652 -0.0637037 -19.167
3 -11.4436 4.24671 -19.0573
3 -7.71877 3.87386 -19.1261
2 -0.353141 3.90717 -19.16
2 3.88383 3.73917 -19.0691
1 7.73084 3.89934 -19.1337
1 11.4711 3.96213 -19.2371
2 -7.73962 7.76952 -19.1809
3 -4.08124 7.82208 -19.1246
1 0.387386 7.87409 -19.1464
3 3.77003 7.6661 -19.137
3 7.61911 7.58792 -19.2444
3 11.5416 7.62147 -19.0359
1 -3.93306 12.1658 -18.7784
3 0.0943871 12.0555 -18.9143
3 -7.58467 -15.302 -15.1943
2 -4.18847 -15.4207 -15.2591
3 -11.3383 -11.8079 -15.0866
3 -7.55111 -11.7362 -15.2729
3 -3.68814 -11.7105 -15.615
3 0.135304 -11.6261 -15.3479
3 3.90204 -11.7665 -15.2375
3 7.70202 -11.7425 -15.0904
3 11.4967 -11.7139 -15.1138
3 -15.3626 -7.67938 -14.84
1 -11.5036 -8.75326 -15.911
3 -7.61786 -7.77183 -15.4726
2 -3.86112 -7.69674 -15.5681
3 0.023022 -7.74118 -15.4418
1 3.92915 -7.69516 -15.1987
2 8.01373 -7.81053 -15.3149
2 11.6076 -7.83306 -15.392
2 14.2565 -7.89154 -16.0395
3 -15.3669 -3.50389 -15.5781
3 -11.7543 -4.02649 -15.4144
2 -7.83311 -3.93193 -15.6642
2 -3.88187 -4.0226 -15.6548
2 -0.210866 -3.7164 -15.6199
2 3.84481 -3.79989 -15.4356
1 7.79246 -3.9316 -15.4295
2 11.6719 -3.99539 -15.4707
2 15.5208 -3.76315 -15.2562
3 -15.2592 0.180297 -15.3492
1 -11.4073 0.315184 -15.4144
2 -7.80344 -0.0255628 -15.5646
1 -4.06454 -0.0860031 -15.5387
3 -0.0385668 0.0202255 -15.4455
2 3.97911 -0.126693 -15.4705
1 7.66326 -0.142787 -15.5191
2 11.5696 -0.0711939 -15.62
2 15.3938 0.152596 -15.5501
3 -15.4167 4.12172 -15.3025
3 -11.4482 3.89535 -15.2263
2 -7.71487 4.11391 -15.457
2 -3.96752 3.84958 -15.445
1 -0.205391 3.97418 -15.4984
2 3.92647 3.87923 -15.3967
1 7.48267 3.91013 -15.4018
2 11.4433 3.82778 -15.5248
2 15.1022 3.82685 -15.6883
3 -11.6137 7.7806 -15.2666
1 -7.75014 7.7539 -15.1703
2 -3.83668 7.70554 -15.4335
1 -0.00420873 7.86826 -15.3803
2 3.92478 8.0737 -15.4217
2 7.71847 7.75913 -15.558
3 11.5041 7.86569 -15.4
1 15.0407 7.6526 -15.5125
3 -11.3719 11.6382 -15.2931
2 -7.64213 11.5016 -15.398
1 -3.81647 11.6516 -15.5116
2 -0.0528299 11.9694 -15.4419
1 3.68102 11.7599 -15.3856
3 11.5811 11.5244 -15.3965
2 -7.41508 15.0211 -15.5903
3 -3.91332 15.6607 -14.984
3 -0.161074 15.3156 -15.1419
3 3.89784 15.3752 -15.0127
2 -7.78909 -17.3792 -9.76735
3 -5.78662 -17.3536 -11.6567
3 3.7741 -19.0124 -11.4066
1 -11.6432 -15.4827 -11.4892
3 -3.92976 -15.3615 -11.6743
1 -0.0161729 -15.59 -11.515
1 4.00611 -15.4683 -11.3875
3 7.57358 -15.4588 -11.5551
3 11.1996 -15.5412 -11.2163
3 -15.0959 -11.499 -11.7625
2 -11.4625 -11.6075 -11.5444
2 -7.75626 -11.6504 -11.6064
3 -3.73814 -11.6038 -11.6537
2 -0.128399 -11.597 -11.6194
1 3.84787 -11.7148 -11.5726
1 7.82433 -11.7101 -11.5539
2 11.5482 -11.8067 -11.2509
3 15.0806 -11.9001 -11.5025
3 -17.3785 -7.29904 -12.1107
3 -15.133 -7.80936 -12.1761
2 -11.6038 -7.74962 -11.6216
1 -7.7941 -7.77868 -11.6505
2 -3.79935 -7.87062 -11.5021
2 0.0711598 -7.75425 -11.6247
2 3.88417 -7.66164 -11.5038
2 7.89795 -7.9545 -11.5919
3 11.5968 -7.95268 -11.5688
1 -15.3771 -3.81902 -11.6382
2 -11.585 -4.0367 -11.5352
2 -7.65003 -3.99659 -11.7126
2 -3.98251 -4.00253 -11.6056
1 -0.157638 -4.01037 -11.7239
1 3.85777 -3.82068 -11.6529
2 7.83803 -3.98683 -11.6154
2 11.895 -4.08453 -11.777
1 15.4916 -4.01279 -11.8818
2 -18.9421 -0.215973 -11.7482
1 -15.4478 0.0169954 -11.5583
1 -11.4572 -0.0758749 -11.5905
1 -7.58079 0.059671 -11.6146
2 -3.93021 -0.0819832 -11.6884
2 0.0710456 -0.0681867 -11.4407
2 4.06503 0.0961932 -11.7037
2 7.87118 -0.0514619 -11.5447
2 11.6347 -0.0600549 -11.6855
1 15.5386 0.0977719 -11.7526
3 18.7365 0.190691 -11.8668
3 -19.0264 3.92372 -11.3007
3 -15.3719 3.90561 -11.4606
2 -11.5792 4.11645 -11.5462
2 -7.67548 3.97421 -11.5013
3 -4.05959 3.94715 -11.637
3 -0.0172353 3.93381 -11.5877
1 3.9827 3.76313 -11.5847
2 7.70674 3.80791 -11.7003
2 11.7714 4.17197 -11.728
3 15.5758 4.00023 -11.7897
3 -17.3258 7.79674 -9.34809
1 -11.5294 7.76528 -11.4981
3 -7.78685 7.94689 -11.481
2 -4.11191 7.80966 -11.5
1 -0.0759956 7.81375 -11.5168
2 3.83228 7.71465 -11.5274
2 7.77493 8.01081 -11.5832
1 11.5579 7.81745 -11.6487
3 15.5774 7.77435 -11.9307
3 -14.9316 11.6446 -11.4852
2 -11.6311 11.4771 -11.6138
1 -7.83307 11.6556 -11.3771
2 -3.79763 11.7016 -11.6299
2 -0.0783808 11.5317 -11.4733
2 3.84189 11.5713 -11.569
2 7.75949 11.6542 -11.65
1 11.6213 11.9096 -11.9727
3 -11.4633 15.3152 -11.2663
3 -7.73126 15.4276 -11.365
2 -3.85327 15.4713 -11.2894
1 -0.153688 15.5156 -11.3621
2 3.89357 15.3034 -11.4019
3 7.77462 15.3733 -11.4456
3 -0.0183847 19.0443 -11.363
3 3.93866 17.1687 -9.48036
3 7.79879 18.548 -11.4957
1 -11.4371 -19.1209 -7.67155
3 -3.96262 -19.0686 -7.91479
2 0.13707 -19.2605 -7.69976
3 7.73024 -19.1349 -7.4136
3 11.1731 -18.8479 -7.54051
3 -11.5598 -15.3658 -7.74509
2 -7.76396 -15.4428 -7.8638
2 -3.79437 -15.4518 -7.93338
2 -0.0320387 -15.5049 -7.71489
2 3.92589 -15.3378 -7.59059
3 7.66953 -15.4053 -7.53929
2 11.3712 -15.4659 -7.56201
3 -19.5148 -11.1834 -6.15328
2 -15.5391 -11.764 -7.68043
2 -11.7989 -11.7049 -7.81908
2 -7.70746 -11.5434 -7.81314
1 -3.90264 -11.7555 -7.89307
1 0.0213551 -11.7473 -7.82601
1 3.90147 -11.6012 -7.87977
1 7.70916 -11.518 -7.79353
1 11.6967 -11.6758 -7.53796
2 15.54 -11.8829 -7.43416
3 18.0117 -12.345 -7.39093
2 -15.5086 -7.89884 -7.71913
1 -11.9597 -7.88379 -7.80181
2 -7.77849 -7.88106 -7.84593
2 -3.90823 -7.91131 -7.83676
2 0.0349731 -7.77221 -7.71774
2 4.01857 -7.67905 -7.65659
1 7.96107 -7.94093 -7.55934
2 11.7918 -7.83828 -7.75331
2 15.4692 -7.91308 -7.85743
2 18.9301 -7.33068 -7.88925
3 -19.0748 -3.96668 -7.88038
2 -15.4021 -3.99748 -7.72714
2 -11.65 -3.92554 -7.70358
1 -7.86276 -4.02726 -7.90379
2 -3.91989 -3.95609 -7.83281
1 -0.0738484 -3.91216 -7.62923
1 3.75847 -3.80253 -7.67156
1 7.95647 -4.045 -7.84163
2 11.8197 -4.0636 -8.0089
1 15.5143 -3.77385 -7.71606
2 19.2409 -4.5709 -7.79342
3 -19.0014 -0.134142 -7.71026
1 -15.5604 0.0857312 -7.74362
1 -11.5262 0.0755133 -7.70033
2 -7.61714 -0.0271729 -7.71846
1 -3.958 0.0890875 -7.69339
1 -0.10084 0.0190996 -7.78308
1 3.96508 0.226622 -7.68317
1 7.78029 0.050852 -7.77344
3 11.8884 -0.0453822 -7.99991
2 15.6962 -0.0648641 -7.82844
2 19.579 0.127993 -7.80205
3 21.0504 -3.74874 -5.95441
3 -19.0527 4.00979 -7.74215
2 -15.401 3.7293 -7.80167
2 -11.7314 3.94423 -7.71248
2 -7.75655 3.81576 -7.59565
2 -3.89693 3.80772 -7.81042
2 -0.0185189 3.92856 -7.7451
2 3.9274 3.82009 -7.95259
2 7.91965 3.64301 -7.91547
2 11.7176 3.77073 -7.89889
2 15.8173 3.80689 -7.80703
1 20.1162 2.71064 -7.82654
3 -15.3537 7.71428 -7.59388
2 -11.6581 7.85077 -7.62695
1 -7.76628 7.91746 -7.76432
2 -3.98608 7.59703 -7.66599
2 0.0180724 7.65279 -7.79155
2 3.87731 7.70342 -7.89069
1 7.94724 7.63004 -7.91975
1 11.7741 7.81178 -7.89819
1 15.6211 7.65063 -7.89182
2 19.0777 7.79419 -7.97042
1 -15.136 11.5129 -7.92846
2 -11.6839 11.3743 -7.67267
2 -7.80359 11.6695 -7.55848
2 -3.90045 11.5878 -7.54109
2 -0.0196684 11.5709 -7.6604
2 3.81779 11.5818 -7.70627
2 7.85058 11.5491 -7.80367
3 11.5272 11.6569 -7.73502
1 15.8731 11.9154 -7.83764
3 17.4296 11.4931 -5.76206
3 -11.6677 15.2435 -7.57827
1 -4.0992 15.4393 -7.50466
3 0.00500554 15.5378 -7.5594
2 4.0468 15.4229 -7.67065
3 7.6363 15.3655 -7.59216
3 11.6271 15.4582 -7.65374
3 15.2694 15.3272 -7.71511
2 -7.91317 19.4452 -7.60291
2 -3.81967 19.1969 -7.53059
2 3.87418 19.1175 -7.92032
3 7.79182 19.0386 -7.84829
3 0.0971558 -22.0792 -3.37932
3 3.80741 -22.576 -3.7335
1 -3.91112 -19.2273 -3.75977
2 -0.0270493 -19.5221 -3.7735
3 3.81939 -19.1127 -3.7138
3 7.72791 -19.0286 -3.62727
2 11.3891 -19.0727 -3.50996
2 -15.4243 -15.5423 -3.78688
2 -11.4254 -15.417 -3.88469
3 -7.70563 -15.41 -3.89953
1 -4.00569 -15.7256 -4.20906
2 -0.0621985 -15.478 -3.90378
1 3.90846 -15.3943 -3.7847
2 7.80192 -15.2713 -3.64642
1 11.6809 -15.4272 -3.71694
2 -18.807 -11.8141 -3.84121
1 -15.4446 -11.6355 -3.74593
2 -11.6397 -11.7315 -3.77508
1 -7.80669 -11.7254 -3.99278
1 -3.96693 -11.5991 -3.99065
2 0.117151 -11.711 -3.92033
2 3.98986 -11.7188 -3.96229
2 7.81355 -11.6352 -3.75565
2 11.7287 -11.5802 -3.70941
2 15.5957 -11.5466 -3.57572
3 18.3672 -11.7 -3.51251
3 -19.0367 -7.79688 -3.68895
3 -15.4067 -7.85485 -3.90928
3 -11.5328 -7.80722 -3.88363
2 -7.8065 -7.85734 -3.96459
2 -4.01822 -7.88547 -3.87708
3 -0.021446 -7.79931 -3.90931
2 3.92602 -7.82924 -3.9872
2 7.74267 -7.80091 -3.98631
2 11.8784 -7.85983 -3.9023
3 15.6414 -7.66174 -3.72829
1 19.6853 -7.88507 -3.4745
1 -19.0608 -4.1143 -4.12074
2 -15.462 -4.10167 -3.84624
2 -11.6406 -3.90905 -4.01058
1 -7.95864 -3.97456 -3.87354
2 -3.90239 -3.92868 -3.97817
1 -0.0383442 -3.75439 -3.753
1 4.005 -3.75599 -3.86364
2 7.95595 -3.84018 -4.05041
2 11.593 -3.81342 -3.85792
3 15.6004 -3.91601 -3.88112
3 19.2884 -4.1179 -3.89539
3 22.9407 -3.82655 -2.93757
2 -22.5045 -0.730586 -4.14034
3 -19.1019 0.00335386 -3.86711
1 -15.4698 -0.0148201 -3.77364
1 -11.7441 0.0452608 -3.8738
2 -7.78744 -0.137391 -3.89696
2 -3.91482 0.0566333 -4.02024
2 -0.118614 0.0671603 -4.01026
2 4.0253 -0.0800307 -3.74876
2 7.86181 -0.0228682 -4.09155
1 11.8033 -0.175101 -3.84716
1 15.8302 0.00150787 -4.01835
2 19.2293 -0.212909 -3.99053
3 22.7453 -0.335233 -4.04496
1 -19.5861 3.88019 -4.02361
2 -15.5169 3.7609 -3.76751
1 -11.6646 3.9024 -3.87301
2 -7.82019 3.76918 -3.85295
1 -3.91039 3.78741 -3.77031
2 -0.114527 3.90371 -3.85851
1 3.97059 3.96233 -4.0178
2 7.94987 3.86521 -3.9467
2 11.7394 3.87949 -3.98536
2 15.6495 3.84993 -4.11343
1 -19.2885 8.15865 -3.91835
2 -15.6084 7.68353 -3.89052
2 -11.683 7.7892 -3.80538
2 -7.77127 7.70679 -3.87095
1 -3.81065 7.68195 -3.86896
2 -0.0895164 7.75792 -3.79789
1 3.8876 7.75004 -3.92884
1 7.84341 7.6322 -4.20196
1 11.7467 7.80417 -3.87742
2 15.5387 7.92985 -4.02962
1 19.112 7.71663 -3.8011
2 -15.442 11.3898 -3.62547
2 -11.67 11.7044 -3.79247
1 -7.87601 11.687 -3.78569
2 -3.92545 11.5997 -3.66113
2 -0.016681 11.5203 -3.86803
2 3.90171 11.5109 -3.79654
1 7.73803 11.6605 -3.90835
2 11.7289 11.5292 -3.93024
3 15.3271 11.3194 -3.89585
3 19.092 11.4526 -3.84764
3 -15.5021 15.2344 -4.02874
1 -11.6309 15.5727 -3.88301
2 -7.83205 15.3573 -3.57317
2 -4.01961 15.6085 -3.77827
2 -0.0761057 15.3848 -3.82602
1 3.70507 15.4634 -3.89182
3 7.84248 15.4218 -3.93636
3 11.5994 15.3551 -3.87929
1 -7.93051 19.3445 -3.89077
3 -4.02407 18.9888 -3.59721
3 -0.0486883 19.2468 -3.85418
3 3.8918 19.1538 -3.66527
3 7.97351 19.2053 -3.89653
1 11.4763 19.0326 -3.76321
3 0.285249 22.3327 -3.87273
3 3.77581 20.77 -5.99647
3 -7.6498 -22.2874 0.109421
3 0.169447 -22.6693 0.059027
3 -7.56502 -19.3849 -0.0583382
3 -3.90426 -19.1483 -0.141955
3 -0.0553659 -19.1257 0.145036
2 3.98291 -18.984 0.134993
3 7.58163 -18.8727 0.123256
3 11.699 -18.9225 0.377877
3 -15.2089 -15.4166 -0.0543578
1 -11.4568 -15.475 -0.071077
1 -7.79991 -15.4688 -0.0262356
1 -3.86199 -15.3579 -0.0705156
3 0.123637 -15.3463 0.066378
2 3.90917 -15.2849 0.128914
2 7.80824 -15.4874 0.0454593
3 11.5056 -15.3151 0.27451
3 15.1988 -15.157 0.24133
1 -15.0387 -11.6281 -0.277585
3 -11.5699 -11.6319 -0.152625
3 -7.64772 -11.6913 -0.00431462
2 -3.75932 -11.5431 0.0181419
2 0.0326774 -11.6289 0.0592593
2 3.74551 -11.477 0.00374509
2 7.69586 -11.5159 0.189476
2 11.4696 -11.5629 0.247238
2 15.3983 -11.6562 0.318087
3 -19.2213 -7.88469 -0.288024
3 -15.3483 -7.75951 -0.0938386
2 -11.5413 -7.72004 0.0388523
2 -7.74165 -7.87942 0.14109
2 -3.91741 -7.83652 -0.157114
2 0.056777 -7.71117 -0.12759
1 3.85396 -7.63562 -0.0823817
2 7.76987 -7.74165 0.358134
2 11.7647 -7.80536 0.0202593
2 15.6205 -7.70443 -0.0449438
3 19.3236 -7.93919 0.162331
3 -21.9778 -3.69233 -0.172624
2 -19.3673 -3.88229 -0.205207
2 -15.5097 -3.98672 0.0804652
2 -11.6484 -3.91755 0.0619625
2 -7.85727 -3.77094 0.0290237
2 -3.947 -3.88528 -0.134346
2 -0.0515071 -3.84348 -0.14616
1 3.98424 -3.87685 -0.0840688
1 7.7584 -3.80862 -0.0279408
1 11.8303 -3.86733 0.188371
2 15.6174 -3.81018 0.0705966
2 19.3707 -4.01666 0.125267
2 22.6953 -3.71336 -0.472272
2 -19.1798 0.124233 -0.0180549
1 -15.5713 -0.0162325 -0.00518363
2 -11.6576 0.0194326 -0.00254858
1 -7.85354 -0.110843 -0.163379
2 -3.81735 -0.167855 0.223277
1 0.0917854 0.151659 -0.0146244
1 4.03424 -0.0491103 -0.149993
2 7.89997 -0.00975607 -0.0223509
3 11.6112 -0.0244742 -0.116232
2 15.6995 -0.020956 0.103051
2 19.2959 -0.0358032 -0.0183744
3 22.9305 0.444784 -0.216061
3 -22.207 4.01545 0.447888
1 -19.6993 3.90646 -0.176866
1 -15.6132 3.89567 0.0561559
2 -11.7313 3.96253 0.108929
1 -7.88702 3.79613 -0.0517583
1 -4.0075 3.83124 0.0631443
2 -0.0549776 3.96441 0.0282194
2 3.829 3.82895 -0.191908
2 7.972 3.80701 0.00500774
2 11.6777 3.76719 -0.162035
1 15.5534 3.70299 -0.121078
1 19.2275 3.78791 0.0760537
3 21.0932 3.82659 -1.9593
2 -19.4405 8.04063 0.0250557
1 -15.5289 7.76931 0.100505
1 -11.6787 7.67132 0.0911247
2 -7.83681 7.75653 -0.141403
2 -3.74147 7.76145 0.0575823
2 0.0445916 7.8926 -0.0281262
2 3.86548 7.86955 0.0426665
2 7.8743 7.78126 0.0272299
2 11.6839 7.79382 0.0366503
2 15.55 7.73045 -0.140164
2 19.2725 7.71911 -0.118499
1 -15.4632 11.5383 0.0948166
1 -11.5758 11.5375 0.105831
1 -7.79536 11.7724 0.203013
1 -3.84057 11.5176 0.132032
1 -0.194779 11.7276 0.0923965
2 3.6829 11.6926 -0.0429757
1 7.72262 11.6384 -0.149707
1 11.6786 11.5405 -0.0437293
2 15.6082 11.7936 -0.131256
3 19.0335 11.2371 -0.166748
1 -15.4797 15.6585 -0.296547
2 -11.6564 15.5956 0.0433354
1 -7.68764 15.5258 0.197412
2 -3.91552 15.5964 0.218304
1 0.0620435 15.7484 0.0926277
3 4.00751 15.6755 -0.00410022
1 7.87342 15.5726 0.020062
3 11.6033 15.2725 0.0243295
2 15.3676 15.3025 -0.0590652
3 -7.88107 19.067 0.157694
1 -4.11285 19.2386 0.222251
2 -0.104179 19.4399 0.217267
3 7.85361 18.9583 0.120654
3 11.5236 19.0534 -0.118303
3 1.84249 21.0132 -0.166353
2 -5.81319 -20.9258 3.88885
2 -0.0822455 -22.8345 3.78073
3 3.87696 -22.5381 3.62376
2 -11.3295 -19.2117 3.87599
3 -3.78573 -19.2386 3.83732
2 0.115517 -19.1625 3.74376
2 3.77485 -19.1784 3.72138
3 7.6203 -19.052 3.83929
3 11.4001 -19.1478 4.03622
2 -15.4133 -15.7055 4.14764
3 -11.4903 -15.4863 3.78916
3 -7.52534 -15.3583 3.7572
1 -3.78445 -15.5533 3.77125
2 0.142492 -15.3792 3.8998
2 3.80405 -15.3612 3.90944
2 7.73393 -15.3418 4.06465
2 11.5093 -15.2437 4.04278
3 -18.7192 -11.9273 3.7378
2 -15.3498 -11.7076 3.81495
3 -11.6629 -11.6782 3.84222
2 -7.85413 -11.5781 3.72146
3 -3.97741 -11.5845 3.85962
2 -0.0841901 -11.6771 3.94775
2 3.799 -11.5281 3.96892
2 7.68431 -11.6135 4.13445
2 11.4678 -11.602 4.04782
3 15.4449 -11.5321 3.90967
3 19.0633 -11.6876 4.27546
2 -19.2943 -7.9253 4.25405
2 -15.479 -7.86719 3.97286
1 -11.5183 -7.85004 3.74623
1 -7.93319 -7.80653 3.86293
2 -3.84096 -7.78461 3.75997
2 0.117237 -7.78614 3.79107
2 3.72438 -7.75273 3.71875
2 7.65532 -7.57429 3.96229
2 11.5796 -7.73514 4.10286
2 15.4214 -7.64647 3.89165
2 19.2393 -8.12972 4.04941
3 -22.0133 -3.46851 4.1698
2 -19.3942 -3.81665 4.00296
2 -15.5802 -3.91462 3.92868
2 -11.7763 -3.92306 3.88204
2 -7.79254 -3.70072 3.85839
2 -3.77324 -3.7881 3.89802
1 0.21548 -4.0291 3.95434
1 3.78739 -3.90791 3.94731
2 7.68722 -3.95842 3.6616
2 11.5856 -3.86041 3.65566
2 15.7592 -3.8074 4.00245
2 19.6444 -3.81661 4.32225
1 -19.3834 0.936201 3.90501
2 -15.681 -0.0713819 3.86482
1 -11.7752 0.0105991 3.97685
3 -7.96687 -0.0477029 3.88008
2 -3.88392 0.0013355 3.82687
3 0.0508564 0.0392565 3.83603
2 3.70798 0.135322 3.83993
2 7.65167 0.120725 3.74969
2 11.5454 0.0833241 3.6966
1 15.5986 -0.0837606 3.90478
1 19.6285 -0.122177 4.13751
3 -19.1331 3.67127 3.84279
3 -15.4653 3.82307 4.04213
2 -11.8053 3.80333 3.73933
2 -7.78887 3.72994 3.74277
1 -3.97754 3.8136 3.94535
1 0.0385357 3.85114 3.84544
2 3.91049 3.99114 3.77862
2 7.76543 3.98449 3.84535
2 11.7308 3.81977 3.74034
2 15.5783 4.0265 3.82681
3 -19.1224 7.71294 4.14593
2 -15.3362 7.7729 3.85317
3 -11.7093 7.84013 3.81279
2 -7.75188 7.78488 3.94348
2 -3.8324 7.65152 3.86359
2 -0.113389 7.66429 3.70842
2 3.86721 7.68932 3.89674
1 7.73875 7.69446 3.87364
1 11.6926 7.77274 3.90643
2 15.5372 7.70602 3.86885
2 19.168 7.58964 3.74797
1 -15.3355 11.4803 3.78194
1 -11.5891 11.6744 3.94946
1 -7.66255 11.7249 3.92274
2 -3.89423 11.8667 3.91158
1 -0.00236407 11.714 4.11993
1 3.99797 11.7236 3.92633
2 7.68689 11.4859 3.66851
3 11.6271 11.6448 3.87832
2 15.553 11.4074 3.62823
2 -15.1839 15.5733 4.29899
2 -11.9994 15.6537 3.96706
2 -7.93613 15.5299 4.09136
2 -4.04221 15.4746 3.93528
1 0.118864 15.6987 4.08539
1 3.9408 15.5254 3.80234
3 7.6561 15.5625 3.75171
2 11.7934 15.676 3.73842
3 15.4955 15.2456 3.72303
1 -7.84967 19.0507 4.16656
2 -4.02896 19.337 4.00748
3 -0.222248 19.4434 3.74569
1 3.98455 19.5959 3.28435
2 7.98765 19.1132 3.6103
3 11.3497 19.2931 3.67665
3 -11.3945 -19.0228 7.44761
3 -7.61878 -19.2606 7.56277
1 -3.7874 -19.0201 7.66103
3 -0.0652351 -19.0323 7.53269
3 3.92173 -19.251 7.72663
1 7.79916 -19.2681 7.6846
1 -11.6121 -15.4543 7.79364
2 -7.71995 -15.4478 7.49326
2 -4.01893 -15.4989 7.61778
2 0.0428817 -15.4031 7.63783
3 7.65492 -15.3268 7.81948
3 11.6533 -15.4905 8.07546
3 -18.7848 -11.7392 7.59194
1 -15.6024 -11.6585 7.59963
2 -11.6784 -11.6795 7.65732
2 -7.85804 -11.6 7.56117
2 -4.05178 -11.5525 7.5578
1 0.0771912 -11.6964 7.67667
2 3.88055 -11.7356 7.75899
2 7.80806 -11.7043 7.82951
1 11.6133 -11.7506 7.88971
3 15.2416 -11.5961 7.78869
2 -15.3382 -7.89963 7.50496
3 -11.7205 -7.8926 7.57481
2 -7.92693 -7.83646 7.69
1 -4.03939 -7.7134 7.7024
1 -0.116257 -7.80132 7.79921
2 3.87853 -7.63809 7.68688
1 7.55957 -7.95487 7.76444
2 11.7207 -7.79884 7.87833
3 15.405 -7.78232 7.92822
2 -18.8743 -4.37762 8.11326
1 -15.6496 -3.9068 7.72391
1 -11.7171 -3.9466 7.56253
2 -7.73762 -3.81553 7.59264
1 -4.07168 -3.8191 7.62584
2 -0.0405185 -4.06961 7.89582
1 3.82246 -3.88183 7.87578
1 7.77738 -3.82914 7.66216
2 11.5732 -3.93914 7.78898
1 15.5063 -4.09164 7.71157
2 19.5853 -3.92942 7.70376
3 -19.0967 -0.170122 8.06539
1 -15.5756 -0.0280761 7.73919
2 -11.7654 -0.0728446 7.6592
2 -7.7972 -0.078195 7.7167
2 -3.98757 -0.0287952 7.64327
2 -0.0148106 -0.0245513 7.71249
2 3.8755 -0.0606777 7.91598
1 7.72551 -0.0361294 7.77069
2 11.6772 -0.025494 7.67232
1 15.4065 -0.126331 7.62993
2 19.1857 0.154283 7.75008
1 -15.4165 3.78459 7.88495
1 -11.7072 3.77564 7.80301
2 -7.89485 3.7518 7.73674
2 -4.04028 3.81283 7.58178
1 -0.00620753 3.78489 7.62454
1 3.96617 3.78851 7.83611
2 7.61985 3.83117 7.81863
1 11.7205 3.75036 7.77579
1 15.3527 3.93126 7.65681
2 19.0811 3.78709 7.72274
2 -18.5458 7.94233 8.1137
2 -15.8026 8.17711 7.96935
2 -11.5635 7.72277 7.79182
2 -7.88741 7.6174 7.95134
1 -3.95559 7.61903 7.73147
2 0.131621 7.90148 7.64128
2 3.96604 7.79483 7.85021
1 7.87662 7.96877 7.79288
1 11.7191 7.91474 7.61885
1 15.5279 7.74546 7.75003
3 18.8955 7.47566 7.75045
1 -15.3033 11.5776 7.64769
3 -11.5663 11.5967 7.88373
2 -7.76284 11.5568 7.90108
1 -4.03052 11.4114 7.94822
1 0.102313 11.7533 7.83617
2 3.86043 11.7425 7.963
2 7.79903 11.7182 7.76304
3 11.6626 11.5646 7.60484
2 15.4041 11.5392 7.63849
1 -11.6116 15.5445 8.23009
2 -7.77348 15.3483 7.92822
3 -3.86466 15.3337 7.93628
2 -0.122266 15.5872 7.83479
3 4.13218 15.4984 7.65796
2 7.60422 15.7205 7.6861
3 11.5916 15.2817 7.67778
3 15.161 15.1228 7.71079
1 -4.02531 19.1994 7.93683
2 0.116703 19.3684 8.15243
1 3.65151 19.1531 7.71303
1 7.74349 19.2192 7.56407
3 11.6239 18.9992 7.56339
3 -7.54038 -18.9331 11.6734
2 0.0257635 -19.2031 11.438
3 3.75891 -19.046 11.2184
3 -11.2511 -15.4255 11.478
2 -7.82914 -15.2451 11.5609
1 -3.8313 -15.4865 11.5949
3 0.00495006 -15.4871 11.6501
2 3.9185 -15.3278 11.4092
2 7.4911 -15.47 11.5929
2 -11.6088 -11.6141 11.6213
2 -7.77771 -11.7963 11.5116
2 -3.94128 -11.7046 11.3588
3 -0.015139 -11.5991 11.4535
2 3.70297 -11.6654 11.6727
2 7.65988 -11.6223 11.6139
2 11.5349 -11.6245 11.8292
3 15.2933 -11.5201 11.611
3 -15.3498 -7.96061 11.6203
3 -11.5278 -7.77906 11.4858
2 -7.69782 -7.78901 11.3898
1 -3.74481 -7.79339 11.4051
3 -0.0952099 -7.92921 11.592
2 3.70599 -7.86837 11.6973
1 7.69107 -7.6442 11.5971
3 11.35 -7.74075 11.5958
3 15.2264 -7.83966 11.6631
3 18.7644 -7.85626 11.508
3 -18.6837 -4.09522 11.9138
1 -15.448 -3.98686 11.7762
2 -11.6916 -3.97115 11.4982
2 -7.80483 -3.86628 11.5031
2 -3.95782 -3.82653 11.4591
2 0.092658 -3.93395 11.702
2 3.77242 -4.08569 11.5608
2 7.53906 -3.90784 11.5574
1 11.4541 -4.05962 11.5712
2 15.2532 -3.92356 11.6574
3 19.1454 -3.82522 11.5848
2 -18.809 -0.0372832 11.7342
2 -15.347 -0.0958325 11.695
3 -11.7083 -0.195579 11.4909
1 -7.93509 -0.161753 11.4742
1 -4.07563 0.0682154 11.5206
2 -0.0546825 0.0887861 11.634
1 3.82267 -0.0593017 11.5132
1 7.77532 0.0774971 11.6059
1 11.5289 -0.029125 11.6102
1 15.2556 -0.149113 11.6246
3 -15.2503 3.87617 11.8074
2 -11.7044 3.85199 11.5629
2 -7.78074 3.80357 11.6497
2 -3.8552 3.73978 11.4436
2 -0.0238127 4.01469 11.6642
2 3.93043 3.93007 11.7003
2 7.81894 3.87786 11.7017
1 11.6203 3.82746 11.7528
2 16.2571 3.91231 12.5072
3 18.5827 3.92861 11.4817
2 -15.3715 7.60522 12.0769
2 -11.7614 7.7638 11.6577
1 -7.77823 7.59048 11.6507
2 -3.86388 7.73077 11.536
1 -0.0512145 7.66335 11.8237
2 3.90533 7.71263 11.7433
1 7.60981 7.81647 11.7375
1 11.6111 7.83007 11.6114
1 15.371 8.2215 12.0155
2 -15.156 11.3156 12.1497
2 -11.5163 11.5313 11.7971
1 -7.79276 11.4929 11.6424
2 -3.72529 11.5802 11.6231
1 -0.00413431 11.6052 11.5078
2 3.94835 11.7542 11.5927
2 7.82768 11.5919 11.5648
1 11.4968 11.5873 11.4968
2 15.2701 11.5888 11.5736
3 -11.3616 15.2081 11.5139
2 -7.64522 15.2125 11.6757
1 -3.86825 15.3089 11.7279
2 -0.245409 15.4868 11.5536
1 3.85582 15.5585 11.6953
2 7.87937 15.7524 11.1829
3 11.542 15.3746 11.4223
3 -3.8891 18.7689 11.6378
3 -0.229777 19.5382 11.2535
2 3.88865 19.3649 11.143
3 -7.71469 -15.5196 15.0575
2 -1.89588 -13.5255 15.3448
3 0.0328857 -15.2164 15.1505
2 3.92115 -15.3774 15.3115
2 -11.3394 -11.7037 15.1368
2 -7.51194 -11.791 15.5349
2 -3.96051 -11.529 15.4506
3 -0.177333 -11.5279 15.5485
3 3.73529 -11.5124 15.3447
2 7.6984 -12.0415 15.6504
3 -14.7791 -7.8442 15.4084
2 -11.4588 -7.88742 15.3812
2 -7.68568 -7.82727 15.1716
1 -3.95232 -7.9036 15.5075
2 -0.0955638 -7.79412 15.3895
3 3.72127 -7.91113 15.5112
3 7.73781 -7.77117 15.5451
2 11.7246 -7.63934 15.6142
1 -14.9545 -4.23186 15.7219
2 -11.3917 -4.04695 15.4191
3 -7.78988 -3.85345 15.3751
1 -3.88059 -3.94364 15.406
2 -0.102694 -3.86669 15.4182
2 3.70016 -3.95906 15.3814
1 7.68378 -3.83674 15.5703
2 11.809 -3.84165 15.4838
3 -15.181 0.177444 15.4634
1 -11.5497 -0.0433918 15.229
2 -7.68252 0.0309598 15.4348
2 -3.86318 0.025304 15.4468
2 -0.150203 -0.0274049 15.4233
1 3.91055 0.142911 15.5751
2 7.84675 -0.0923928 15.5047
2 11.3877 -0.181223 15.2963
3 15.1981 -0.102225 15.2495
3 -11.5793 3.88519 15.4396
2 -7.82527 3.49887 15.444
2 -3.89808 3.9051 15.5273
2 -0.169242 3.70051 15.4733
2 4.08147 3.93133 15.328
1 7.62364 3.97331 15.3731
1 11.6539 3.91665 15.399
2 -11.3997 7.44007 15.4112
2 -7.74163 7.55859 15.3832
1 -3.82216 7.53231 15.4373
2 -0.0533815 7.76215 15.415
3 3.93523 7.84855 15.4487
2 7.73882 7.73439 15.3662
2 11.5559 7.80367 15.2922
1 -7.82837 11.3849 15.3671
1 -3.74633 11.6378 15.4098
2 -0.20649 11.6548 15.4089
3 3.71869 11.4025 15.6025
3 7.88811 11.5076 15.5224
3 11.3746 11.5001 15.1246
3 -7.78873 14.8607 15.3074
3 -4.05393 15.188 15.5231
2 -0.106342 15.4163 15.1546
2 4.06876 15.9514 14.3427
3 8.13141 15.4019 15.3725
2 -7.72758 -11.3573 19.3233
3 -3.99715 -11.1643 19.2477
2 0.0470737 -11.5759 19.1162
2 -7.93771 -7.91392 19.1796
3 -3.92297 -7.7055 19.2951
3 -0.0973918 -7.61395 19.1833
2 3.6187 -7.66337 19.2944
1 7.54586 -7.44102 19.2352
3 -11.3597 -4.01123 18.9356
2 -7.7119 -3.92699 19.2444
1 -3.97344 -3.7692 19.2539
3 -0.0558539 -3.80993 19.059
2 3.74557 -3.96984 19.1781
3 11.1343 -4.00924 19.4161
2 -11.6082 -0.225988 19.1531
3 -7.95755 -0.225172 19.2171
2 -3.85035 0.170511 19.2701
3 -0.125468 0.00188556 19.2881
2 3.70367 0.0287996 19.177
2 7.82579 0.0964909 19.0551
3 11.3954 0.393448 19.2167
1 -11.3783 3.88992 19.2672
2 -7.50247 3.93134 19.3557
1 -3.79484 3.66989 19.1819
3 -0.0608099 3.7348 19.1751
3 3.85363 3.95106 19.036
2 7.75256 3.88193 19.1958
2 -7.7586 7.56599 19.2472
1 -3.84198 7.56578 19.0947
1 0.0909782 7.66018 19.3618
3 3.68938 7.79501 19.1584
3 7.62678 7.77273 18.908
3 -7.83913 11.3119 18.6194
2 -3.81531 11.2312 19.1018
3 -0.119135 11.1994 19.3015
3 3.9831 11.6331 18.6863
3 8.06104 11.4594 18.0729
2 -3.66435 -3.74073 22.585
3 -0.0689888 -3.53676 22.6668
3 3.69627 -3.76191 22.5953
3 -0.0624923 0.132859 22.5966
3 1.8887 1.68958 22.5565
3 -2.23827 -2.20834 -22.6776
3 -5.82096 1.61743 -22.5893
3 -1.99325 3.52188 -21.2371
3 1.91753 2.36192 -22.5473
3 -2.05762 5.48287 -22.1891
3 2.02133 4.9642 -22.6297
3 -6.38726 -13.3818 -18.3743
3 -1.71866 -13.6403 -18.4362
2 -1.88008 -9.28818 -19.1495
3 2.01365 -9.74428 -19.0822
2 9.49801 -9.63043 -18.8321
2 -13.4903 -6.055 -19.1009
3 -9.95133 -6.13664 -18.908
1 -5.91515 -5.64438 -19.2355
2 -1.82557 -5.64101 -19.4171
3 2.08808 -5.81469 -19.1565
2 5.56764 -5.4354 -19.1721
3 -9.89578 -2.14077 -19.2077
3 -5.8465 -1.80354 -19.2802
1 -2.10949 -2.00881 -19.8732
2 1.91095 -1.84809 -19.4173
2 5.67197 -1.69635 -19.288
3 13.1648 -1.86301 -18.8976
3 -11.6713 2.22398 -17.1914
2 -9.82598 2.13505 -19.0179
3 -5.94149 2.07627 -19.0288
1 -2.06004 1.83844 -19.1856
3 1.90337 1.92081 -19.0556
1 5.70391 1.98071 -19.1261
1 9.67482 1.8468 -19.1558
3 13.1042 1.97422 -19.2774
1 -9.58087 6.03184 -19.0261
3 -5.89535 5.92359 -19.3404
2 1.79188 5.85415 -19.1391
2 5.82931 5.73767 -19.0999
1 9.57806 5.85232 -19.3098
3 13.2508 5.85766 -19.0345
3 -9.45802 9.55736 -18.7835
3 -5.34099 9.78706 -19.0397
2 -2.77904 10.0082 -19.5608
3 1.86859 9.93833 -19.1826
1 5.71444 9.48039 -19.3479
3 -1.7748 13.4131 -19.1758
3 -5.88266 -15.3621 -13.2946
1 4.19803 -15.3295 -15.2399
2 -1.91322 -13.6448 -15.7905
1 2.09982 -13.4978 -15.3983
3 6.00766 -13.3495 -15.078
3 9.61174 -13.4659 -15.1114
2 -9.4321 -9.91625 -15.5834
2 -5.83216 -9.76021 -15.5819
1 -1.88762 -9.7932 -15.6764
2 2.01817 -9.734 -15.4145
1 5.85438 -9.70725 -15.2738
3 9.90968 -9.8507 -15.326
2 13.5092 -10.0849 -15.2566
3 -16.3659 -5.49861 -15.4165
2 -13.8834 -5.663 -15.2865
1 -9.72045 -5.92186 -15.3979
2 -5.80842 -5.78736 -15.6842
2 -1.90806 -5.86124 -15.6296
2 1.90244 -5.83334 -15.3904
1 5.75034 -5.71386 -15.4635
1 9.83891 -5.94807 -15.5404
1 13.4487 -5.73559 -15.3848
3 15.9001 -6.15855 -16.3681
3 -16.8802 -1.66135 -15.6972
1 -13.5139 -1.71381 -15.4244
1 -9.97071 -1.85143 -15.5746
2 -5.89467 -1.96577 -15.6545
1 -2.07309 -1.95981 -15.5295
2 1.83748 -1.89816 -15.527
3 5.76033 -2.11167 -15.4386
2 9.48863 -1.92297 -15.4746
2 13.4035 -1.9144 -15.4689
2 -15.573 2.00483 -13.4518
1 -13.589 2.23086 -15.4612
3 -9.60517 2.14995 -15.2891
2 -5.95859 2.00427 -15.5831
1 -1.95195 1.94016 -15.4572
2 1.83766 1.87721 -15.3846
3 5.8124 1.72874 -15.3643
2 9.61768 1.75155 -15.3946
3 13.3621 2.05329 -15.4566
2 17.0316 1.99848 -15.6363
3 -13.3534 5.79523 -15.206
3 -9.67023 5.87657 -15.1466
3 -5.6931 5.77673 -15.4028
2 -2.03428 5.99932 -15.4746
1 1.97191 6.02954 -15.4377
1 5.74507 5.78628 -15.4043
2 9.6985 6.09825 -15.4341
3 13.1976 5.79479 -15.3472
3 16.6046 5.7789 -15.7227
2 -13.2193 9.8876 -15.7274
1 -9.6457 9.66449 -15.2312
2 -5.86655 9.47413 -15.4575
1 -1.97846 9.69712 -15.3279
2 1.93076 9.85844 -15.6153
2 5.75973 9.8788 -15.6168
1 9.65309 9.94558 -15.7388
3 13.3254 9.45471 -15.5759
3 -9.40808 13.2352 -15.5082
1 -5.46317 13.6746 -15.631
3 -2.01209 13.7202 -15.2198
2 1.83713 13.7602 -15.13
1 5.78588 13.6325 -15.3561
3 9.86696 13.434 -15.3644
3 1.98008 15.3723 -13.0934
2 1.81108 -17.4831 -11.6544
2 5.84507 -17.4658 -11.3069
3 -13.4261 -13.3099 -11.6657
3 -9.69205 -13.345 -11.3035
2 -5.77443 -13.5384 -11.6061
2 -1.99175 -13.6469 -11.6494
2 1.84364 -13.4863 -11.669
2 5.96149 -13.6376 -11.4627
3 9.65588 -13.5241 -11.4814
1 13.2431 -13.8051 -11.5259
3 -16.6478 -9.54149 -11.5778
2 -13.3826 -9.61563 -11.7082
1 -9.57592 -9.73176 -11.6303
1 -5.82212 -9.61414 -11.689
2 -1.93269 -9.74751 -11.6857
2 2.07358 -9.75952 -11.5837
1 5.78195 -9.72954 -11.6558
2 9.69219 -9.95061 -11.4142
2 13.5671 -9.8924 -11.5724
3 -17.6033 -4.89648 -11.8734
1 -13.6736 -5.79982 -11.8161
2 -9.72774 -6.00912 -11.6243
2 -5.79867 -5.86788 -11.6782
1 -1.84664 -5.90499 -11.6838
2 1.87227 -5.8651 -11.6253
1 5.71896 -5.7654 -11.6202
1 9.91829 -5.74114 -11.6375
1 13.5217 -5.93397 -12.0002
2 17.2557 -5.79851 -12.1345
1 -17.3374 -2.06058 -11.6721
2 -13.5015 -1.88583 -11.5894
1 -9.48682 -1.92816 -11.619
2 -5.82959 -1.85588 -11.5895
2 -1.87021 -2.16865 -11.6719
2 2.08166 -1.78412 -11.4916
1 5.84486 -1.94047 -11.726
2 9.81139 -2.1353 -11.8876
1 13.5338 -1.96434 -11.7865
3 17.1509 -1.95381 -11.7345
3 -17.2263 1.97232 -11.524
2 -13.5014 2.04945 -11.6665
2 -9.61542 1.91626 -11.4862
2 -5.89113 1.96114 -11.6918
1 -2.02044 1.90571 -11.7812
1 1.98297 1.98664 -11.5118
2 5.97602 1.90596 -11.6038
1 9.74904 2.04934 -11.7498
2 13.7157 1.94455 -11.8923
2 17.3995 2.2703 -12.1911
3 -17.155 5.86265 -11.3902
1 -13.4328 5.95172 -11.6711
2 -9.53883 5.96363 -11.5691
2 -5.82071 5.89957 -11.4322
2 -2.08216 5.746 -11.5277
2 1.96099 5.63594 -11.5366
1 5.77068 5.9368 -11.6717
2 9.63562 5.91333 -11.6657
2 13.7692 5.95731 -11.4505
2 -13.4513 9.59432 -11.4837
2 -9.7423 9.62942 -11.6357
1 -5.65953 9.72013 -11.5875
1 -2.0436 9.69961 -11.5891
2 1.94779 9.78794 -11.6203
2 5.79333 9.69205 -11.62
2 9.79766 9.89025 -11.5732
3 16.6391 9.73082 -12.0807
3 -13.2762 13.4892 -11.3895
2 -9.7086 13.5648 -11.4506
1 -5.89227 13.5811 -11.5871
1 -1.90699 13.5691 -11.3824
1 1.91318 13.4339 -11.5647
2 5.82124 13.5823 -11.5278
2 9.67819 13.5072 -11.6325
3 13.4628 13.8972 -11.5854
1 -9.55474 17.2302 -11.3327
3 -5.83485 17.3253 -11.2343
3 -1.91511 17.2465 -11.1219
2 1.86327 17.3085 -11.2866