LAMMPS DATA FOR MEAM SIMULATION

   4321   atoms
      3   atom types

  -33.55   33.55   xlo xhi
  -33.55   33.55   ylo yhi
  -33.55   33.55   zlo zhi

 Atoms

     1   3     0.00000    -7.84889   -23.54666
     2   1    -3.92444    -3.92444   -23.54666
     3   3     0.00000    -3.92444   -23.54666
     4   2     3.92444    -3.92444   -23.54666
     5   1    -7.84889     0.00000   -23.54666
     6   3    -3.92444     0.00000   -23.54666
     7   2     0.00000     0.00000   -23.54666
     8   2     3.92444     0.00000   -23.54666
     9   1     7.84889     0.00000   -23.54666
    10   2    -3.92444     3.92444   -23.54666
    11   3     0.00000     3.92444   -23.54666
    12   3     3.92444     3.92444   -23.54666
    13   1     0.00000     7.84889   -23.54666
    14   2    -7.84889   -11.77333   -19.62221
    15   1    -3.92444   -11.77333   -19.62221
    16   2     0.00000   -11.77333   -19.62221
    17   1     3.92444   -11.77333   -19.62221
    18   1     7.84889   -11.77333   -19.62221
    19   3   -11.77333    -7.84889   -19.62221
    20   2    -7.84889    -7.84889   -19.62221
    21   2    -3.92444    -7.84889   -19.62221
    22   2     0.00000    -7.84889   -19.62221
    23   1     3.92444    -7.84889   -19.62221
    24   2     7.84889    -7.84889   -19.62221
    25   2    11.77333    -7.84889   -19.62221
    26   3   -11.77333    -3.92444   -19.62221
    27   2    -7.84889    -3.92444   -19.62221
    28   1    -3.92444    -3.92444   -19.62221
    29   2     0.00000    -3.92444   -19.62221
    30   3     3.92444    -3.92444   -19.62221
    31   1     7.84889    -3.92444   -19.62221
    32   3    11.77333    -3.92444   -19.62221
    33   2   -11.77333     0.00000   -19.62221
    34   2    -7.84889     0.00000   -19.62221
    35   2    -3.92444     0.00000   -19.62221
    36   1     0.00000     0.00000   -19.62221
    37   3     3.92444     0.00000   -19.62221
    38   3     7.84889     0.00000   -19.62221
    39   2    11.77333     0.00000   -19.62221
    40   3   -11.77333     3.92444   -19.62221
    41   3    -7.84889     3.92444   -19.62221
    42   2    -3.92444     3.92444   -19.62221
    43   1     0.00000     3.92444   -19.62221
    44   3     3.92444     3.92444   -19.62221
    45   3     7.84889     3.92444   -19.62221
    46   1    11.77333     3.92444   -19.62221
    47   2   -11.77333     7.84889   -19.62221
    48   1    -7.84889     7.84889   -19.62221
    49   3    -3.92444     7.84889   -19.62221
    50   2     0.00000     7.84889   -19.62221
    51   2     3.92444     7.84889   -19.62221
    52   2     7.84889     7.84889   -19.62221
    53   1    11.77333     7.84889   -19.62221
    54   3    -7.84889    11.77333   -19.62221
    55   2    -3.92444    11.77333   -19.62221
    56   2     0.00000    11.77333   -19.62221
    57   2     3.92444    11.77333   -19.62221
    58   3     7.84889    11.77333   -19.62221
    59   2    -7.84889   -15.69777   -15.69777
    60   2    -3.92444   -15.69777   -15.69777
    61   3     0.00000   -15.69777   -15.69777
    62   2     3.92444   -15.69777   -15.69777
    63   2     7.84889   -15.69777   -15.69777
    64   2   -11.77333   -11.77333   -15.69777
    65   3    -7.84889   -11.77333   -15.69777
    66   3    -3.92444   -11.77333   -15.69777
    67   2     0.00000   -11.77333   -15.69777
    68   3     3.92444   -11.77333   -15.69777
    69   1     7.84889   -11.77333   -15.69777
    70   2    11.77333   -11.77333   -15.69777
    71   2   -15.69777    -7.84889   -15.69777
    72   3   -11.77333    -7.84889   -15.69777
    73   2    -7.84889    -7.84889   -15.69777
    74   2    -3.92444    -7.84889   -15.69777
    75   2     0.00000    -7.84889   -15.69777
    76   2     3.92444    -7.84889   -15.69777
    77   2     7.84889    -7.84889   -15.69777
    78   1    11.77333    -7.84889   -15.69777
    79   2    15.69777    -7.84889   -15.69777
    80   2   -15.69777    -3.92444   -15.69777
    81   1   -11.77333    -3.92444   -15.69777
    82   3    -7.84889    -3.92444   -15.69777
    83   1    -3.92444    -3.92444   -15.69777
    84   2     0.00000    -3.92444   -15.69777
    85   1     3.92444    -3.92444   -15.69777
    86   1     7.84889    -3.92444   -15.69777
    87   1    11.77333    -3.92444   -15.69777
    88   3    15.69777    -3.92444   -15.69777
    89   2   -15.69777     0.00000   -15.69777
    90   2   -11.77333     0.00000   -15.69777
    91   2    -7.84889     0.00000   -15.69777
    92   2    -3.92444     0.00000   -15.69777
    93   1     0.00000     0.00000   -15.69777
    94   3     3.92444     0.00000   -15.69777
    95   1     7.84889     0.00000   -15.69777
    96   3    11.77333     0.00000   -15.69777
    97   2    15.69777     0.00000   -15.69777
    98   3   -15.69777     3.92444   -15.69777
    99   1   -11.77333     3.92444   -15.69777
   100   1    -7.84889     3.92444   -15.69777
   101   1    -3.92444     3.92444   -15.69777
   102   1     0.00000     3.92444   -15.69777
   103   2     3.92444     3.92444   -15.69777
   104   2     7.84889     3.92444   -15.69777
   105   2    11.77333     3.92444   -15.69777
   106   3    15.69777     3.92444   -15.69777
   107   1   -15.69777     7.84889   -15.69777
   108   2   -11.77333     7.84889   -15.69777
   109   2    -7.84889     7.84889   -15.69777
   110   2    -3.92444     7.84889   -15.69777
   111   2     0.00000     7.84889   -15.69777
   112   3     3.92444     7.84889   -15.69777
   113   2     7.84889     7.84889   -15.69777
   114   2    11.77333     7.84889   -15.69777
   115   2    15.69777     7.84889   -15.69777
   116   1   -11.77333    11.77333   -15.69777
   117   2    -7.84889    11.77333   -15.69777
   118   2    -3.92444    11.77333   -15.69777
   119   1     0.00000    11.77333   -15.69777
   120   3     3.92444    11.77333   -15.69777
   121   1     7.84889    11.77333   -15.69777
   122   2    11.77333    11.77333   -15.69777
   123   2    -7.84889    15.69777   -15.69777
   124   2    -3.92444    15.69777   -15.69777
   125   1     0.00000    15.69777   -15.69777
   126   3     3.92444    15.69777   -15.69777
   127   2     7.84889    15.69777   -15.69777
   128   1    -7.84889   -19.62221   -11.77333
   129   1    -3.92444   -19.62221   -11.77333
   130   2     0.00000   -19.62221   -11.77333
   131   3     3.92444   -19.62221   -11.77333
   132   1     7.84889   -19.62221   -11.77333
   133   3   -11.77333   -15.69777   -11.77333
   134   3    -7.84889   -15.69777   -11.77333
   135   1    -3.92444   -15.69777   -11.77333
   136   3     0.00000   -15.69777   -11.77333
   137   3     3.92444   -15.69777   -11.77333
   138   2     7.84889   -15.69777   -11.77333
   139   2    11.77333   -15.69777   -11.77333
   140   1   -15.69777   -11.77333   -11.77333
   141   3   -11.77333   -11.77333   -11.77333
   142   1    -7.84889   -11.77333   -11.77333
   143   2    -3.92444   -11.77333   -11.77333
   144   2     0.00000   -11.77333   -11.77333
   145   1     3.92444   -11.77333   -11.77333
   146   1     7.84889   -11.77333   -11.77333
   147   3    11.77333   -11.77333   -11.77333
   148   2    15.69777   -11.77333   -11.77333
   149   2   -19.62221    -7.84889   -11.77333
   150   2   -15.69777    -7.84889   -11.77333
   151   3   -11.77333    -7.84889   -11.77333
   152   3    -7.84889    -7.84889   -11.77333
   153   2    -3.92444    -7.84889   -11.77333
   154   2     0.00000    -7.84889   -11.77333
   155   2     3.92444    -7.84889   -11.77333
   156   1     7.84889    -7.84889   -11.77333
   157   2    11.77333    -7.84889   -11.77333
   158   2    15.69777    -7.84889   -11.77333
   159   2    19.62221    -7.84889   -11.77333
   160   2   -19.62221    -3.92444   -11.77333
   161   1   -15.69777    -3.92444   -11.77333
   162   1   -11.77333    -3.92444   -11.77333
   163   1    -7.84889    -3.92444   -11.77333
   164   2    -3.92444    -3.92444   -11.77333
   165   1     0.00000    -3.92444   -11.77333
   166   3     3.92444    -3.92444   -11.77333
   167   2     7.84889    -3.92444   -11.77333
   168   2    11.77333    -3.92444   -11.77333
   169   1    15.69777    -3.92444   -11.77333
   170   1    19.62221    -3.92444   -11.77333
   171   1   -19.62221     0.00000   -11.77333
   172   3   -15.69777     0.00000   -11.77333
   173   2   -11.77333     0.00000   -11.77333
   174   1    -7.84889     0.00000   -11.77333
   175   1    -3.92444     0.00000   -11.77333
   176   1     0.00000     0.00000   -11.77333
   177   1     3.92444     0.00000   -11.77333
   178   2     7.84889     0.00000   -11.77333
   179   2    11.77333     0.00000   -11.77333
   180   2    15.69777     0.00000   -11.77333
   181   3    19.62221     0.00000   -11.77333
   182   1   -19.62221     3.92444   -11.77333
   183   2   -15.69777     3.92444   -11.77333
   184   1   -11.77333     3.92444   -11.77333
   185   2    -7.84889     3.92444   -11.77333
   186   2    -3.92444     3.92444   -11.77333
   187   2     0.00000     3.92444   -11.77333
   188   2     3.92444     3.92444   -11.77333
   189   2     7.84889     3.92444   -11.77333
   190   1    11.77333     3.92444   -11.77333
   191   2    15.69777     3.92444   -11.77333
   192   2    19.62221     3.92444   -11.77333
   193   3   -19.62221     7.84889   -11.77333
   194   1   -15.69777     7.84889   -11.77333
   195   2   -11.77333     7.84889   -11.77333
   196   1    -7.84889     7.84889   -11.77333
   197   3    -3.92444     7.84889   -11.77333
   198   2     0.00000     7.84889   -11.77333
   199   2     3.92444     7.84889   -11.77333
   200   2     7.84889     7.84889   -11.77333
   201   1    11.77333     7.84889   -11.77333
   202   1    15.69777     7.84889   -11.77333
   203   3    19.62221     7.84889   -11.77333
   204   3   -15.69777    11.77333   -11.77333
   205   2   -11.77333    11.77333   -11.77333
   206   2    -7.84889    11.77333   -11.77333
   207   1    -3.92444    11.77333   -11.77333
   208   2     0.00000    11.77333   -11.77333
   209   2     3.92444    11.77333   -11.77333
   210   2     7.84889    11.77333   -11.77333
   211   3    11.77333    11.77333   -11.77333
   212   3    15.69777    11.77333   -11.77333
   213   3   -11.77333    15.69777   -11.77333
   214   3    -7.84889    15.69777   -11.77333
   215   2    -3.92444    15.69777   -11.77333
   216   1     0.00000    15.69777   -11.77333
   217   1     3.92444    15.69777   -11.77333
   218   1     7.84889    15.69777   -11.77333
   219   2    11.77333    15.69777   -11.77333
   220   1    -7.84889    19.62221   -11.77333
   221   2    -3.92444    19.62221   -11.77333
   222   2     0.00000    19.62221   -11.77333
   223   2     3.92444    19.62221   -11.77333
   224   2     7.84889    19.62221   -11.77333
   225   3     0.00000   -23.54666    -7.84889
   226   1   -11.77333   -19.62221    -7.84889
   227   2    -7.84889   -19.62221    -7.84889
   228   3    -3.92444   -19.62221    -7.84889
   229   2     0.00000   -19.62221    -7.84889
   230   1     3.92444   -19.62221    -7.84889
   231   1     7.84889   -19.62221    -7.84889
   232   1    11.77333   -19.62221    -7.84889
   233   3   -15.69777   -15.69777    -7.84889
   234   3   -11.77333   -15.69777    -7.84889
   235   1    -7.84889   -15.69777    -7.84889
   236   1    -3.92444   -15.69777    -7.84889
   237   3     0.00000   -15.69777    -7.84889
   238   1     3.92444   -15.69777    -7.84889
   239   1     7.84889   -15.69777    -7.84889
   240   2    11.77333   -15.69777    -7.84889
   241   3    15.69777   -15.69777    -7.84889
   242   2   -19.62221   -11.77333    -7.84889
   243   3   -15.69777   -11.77333    -7.84889
   244   2   -11.77333   -11.77333    -7.84889
   245   3    -7.84889   -11.77333    -7.84889
   246   1    -3.92444   -11.77333    -7.84889
   247   2     0.00000   -11.77333    -7.84889
   248   3     3.92444   -11.77333    -7.84889
   249   3     7.84889   -11.77333    -7.84889
   250   2    11.77333   -11.77333    -7.84889
   251   2    15.69777   -11.77333    -7.84889
   252   3    19.62221   -11.77333    -7.84889
   253   1   -19.62221    -7.84889    -7.84889
   254   3   -15.69777    -7.84889    -7.84889
   255   2   -11.77333    -7.84889    -7.84889
   256   2    -7.84889    -7.84889    -7.84889
   257   2    -3.92444    -7.84889    -7.84889
   258   3     0.00000    -7.84889    -7.84889
   259   1     3.92444    -7.84889    -7.84889
   260   3     7.84889    -7.84889    -7.84889
   261   3    11.77333    -7.84889    -7.84889
   262   3    15.69777    -7.84889    -7.84889
   263   3    19.62221    -7.84889    -7.84889
   264   2   -19.62221    -3.92444    -7.84889
   265   2   -15.69777    -3.92444    -7.84889
   266   2   -11.77333    -3.92444    -7.84889
   267   2    -7.84889    -3.92444    -7.84889
   268   1    -3.92444    -3.92444    -7.84889
   269   2     0.00000    -3.92444    -7.84889
   270   1     3.92444    -3.92444    -7.84889
   271   3     7.84889    -3.92444    -7.84889
   272   1    11.77333    -3.92444    -7.84889
   273   3    15.69777    -3.92444    -7.84889
   274   2    19.62221    -3.92444    -7.84889
   275   2   -23.54666     0.00000    -7.84889
   276   1   -19.62221     0.00000    -7.84889
   277   2   -15.69777     0.00000    -7.84889
   278   3   -11.77333     0.00000    -7.84889
   279   3    -7.84889     0.00000    -7.84889
   280   1    -3.92444     0.00000    -7.84889
   281   2     0.00000     0.00000    -7.84889
   282   3     3.92444     0.00000    -7.84889
   283   1     7.84889     0.00000    -7.84889
   284   3    11.77333     0.00000    -7.84889
   285   1    15.69777     0.00000    -7.84889
   286   2    19.62221     0.00000    -7.84889
   287   2    23.54666     0.00000    -7.84889
   288   2   -19.62221     3.92444    -7.84889
   289   1   -15.69777     3.92444    -7.84889
   290   1   -11.77333     3.92444    -7.84889
   291   1    -7.84889     3.92444    -7.84889
   292   1    -3.92444     3.92444    -7.84889
   293   3     0.00000     3.92444    -7.84889
   294   1     3.92444     3.92444    -7.84889
   295   1     7.84889     3.92444    -7.84889
   296   2    11.77333     3.92444    -7.84889
   297   2    15.69777     3.92444    -7.84889
   298   2    19.62221     3.92444    -7.84889
   299   3   -19.62221     7.84889    -7.84889
   300   1   -15.69777     7.84889    -7.84889
   301   2   -11.77333     7.84889    -7.84889
   302   1    -7.84889     7.84889    -7.84889
   303   3    -3.92444     7.84889    -7.84889
   304   1     0.00000     7.84889    -7.84889
   305   3     3.92444     7.84889    -7.84889
   306   2     7.84889     7.84889    -7.84889
   307   2    11.77333     7.84889    -7.84889
   308   1    15.69777     7.84889    -7.84889
   309   2    19.62221     7.84889    -7.84889
   310   1   -19.62221    11.77333    -7.84889
   311   2   -15.69777    11.77333    -7.84889
   312   1   -11.77333    11.77333    -7.84889
   313   2    -7.84889    11.77333    -7.84889
   314   3    -3.92444    11.77333    -7.84889
   315   1     0.00000    11.77333    -7.84889
   316   2     3.92444    11.77333    -7.84889
   317   2     7.84889    11.77333    -7.84889
   318   2    11.77333    11.77333    -7.84889
   319   2    15.69777    11.77333    -7.84889
   320   1    19.62221    11.77333    -7.84889
   321   2   -15.69777    15.69777    -7.84889
   322   2   -11.77333    15.69777    -7.84889
   323   3    -7.84889    15.69777    -7.84889
   324   1    -3.92444    15.69777    -7.84889
   325   2     0.00000    15.69777    -7.84889
   326   2     3.92444    15.69777    -7.84889
   327   2     7.84889    15.69777    -7.84889
   328   3    11.77333    15.69777    -7.84889
   329   2    15.69777    15.69777    -7.84889
   330   2   -11.77333    19.62221    -7.84889
   331   1    -7.84889    19.62221    -7.84889
   332   3    -3.92444    19.62221    -7.84889
   333   1     0.00000    19.62221    -7.84889
   334   1     3.92444    19.62221    -7.84889
   335   2     7.84889    19.62221    -7.84889
   336   2    11.77333    19.62221    -7.84889
   337   2     0.00000    23.54666    -7.84889
   338   1    -3.92444   -23.54666    -3.92444
   339   1     0.00000   -23.54666    -3.92444
   340   2     3.92444   -23.54666    -3.92444
   341   3   -11.77333   -19.62221    -3.92444
   342   2    -7.84889   -19.62221    -3.92444
   343   3    -3.92444   -19.62221    -3.92444
   344   1     0.00000   -19.62221    -3.92444
   345   3     3.92444   -19.62221    -3.92444
   346   3     7.84889   -19.62221    -3.92444
   347   2    11.77333   -19.62221    -3.92444
   348   1   -15.69777   -15.69777    -3.92444
   349   2   -11.77333   -15.69777    -3.92444
   350   2    -7.84889   -15.69777    -3.92444
   351   3    -3.92444   -15.69777    -3.92444
   352   3     0.00000   -15.69777    -3.92444
   353   1     3.92444   -15.69777    -3.92444
   354   2     7.84889   -15.69777    -3.92444
   355   1    11.77333   -15.69777    -3.92444
   356   3    15.69777   -15.69777    -3.92444
   357   1   -19.62221   -11.77333    -3.92444
   358   3   -15.69777   -11.77333    -3.92444
   359   2   -11.77333   -11.77333    -3.92444
   360   2    -7.84889   -11.77333    -3.92444
   361   1    -3.92444   -11.77333    -3.92444
   362   2     0.00000   -11.77333    -3.92444
   363   3     3.92444   -11.77333    -3.92444
   364   2     7.84889   -11.77333    -3.92444
   365   3    11.77333   -11.77333    -3.92444
   366   1    15.69777   -11.77333    -3.92444
   367   1    19.62221   -11.77333    -3.92444
   368   2   -19.62221    -7.84889    -3.92444
   369   2   -15.69777    -7.84889    -3.92444
   370   1   -11.77333    -7.84889    -3.92444
   371   2    -7.84889    -7.84889    -3.92444
   372   1    -3.92444    -7.84889    -3.92444
   373   3     0.00000    -7.84889    -3.92444
   374   2     3.92444    -7.84889    -3.92444
   375   1     7.84889    -7.84889    -3.92444
   376   1    11.77333    -7.84889    -3.92444
   377   1    15.69777    -7.84889    -3.92444
   378   3    19.62221    -7.84889    -3.92444
   379   1   -23.54666    -3.92444    -3.92444
   380   2   -19.62221    -3.92444    -3.92444
   381   2   -15.69777    -3.92444    -3.92444
   382   3   -11.77333    -3.92444    -3.92444
   383   2    -7.84889    -3.92444    -3.92444
   384   3    -3.92444    -3.92444    -3.92444
   385   3     0.00000    -3.92444    -3.92444
   386   1     3.92444    -3.92444    -3.92444
   387   2     7.84889    -3.92444    -3.92444
   388   1    11.77333    -3.92444    -3.92444
   389   2    15.69777    -3.92444    -3.92444
   390   2    19.62221    -3.92444    -3.92444
   391   2    23.54666    -3.92444    -3.92444
   392   3   -23.54666     0.00000    -3.92444
   393   3   -19.62221     0.00000    -3.92444
   394   2   -15.69777     0.00000    -3.92444
   395   3   -11.77333     0.00000    -3.92444
   396   2    -7.84889     0.00000    -3.92444
   397   2    -3.92444     0.00000    -3.92444
   398   2     0.00000     0.00000    -3.92444
   399   3     3.92444     0.00000    -3.92444
   400   2     7.84889     0.00000    -3.92444
   401   2    11.77333     0.00000    -3.92444
   402   1    15.69777     0.00000    -3.92444
   403   1    19.62221     0.00000    -3.92444
   404   2    23.54666     0.00000    -3.92444
   405   1   -23.54666     3.92444    -3.92444
   406   1   -19.62221     3.92444    -3.92444
   407   3   -15.69777     3.92444    -3.92444
   408   1   -11.77333     3.92444    -3.92444
   409   2    -7.84889     3.92444    -3.92444
   410   1    -3.92444     3.92444    -3.92444
   411   2     0.00000     3.92444    -3.92444
   412   1     3.92444     3.92444    -3.92444
   413   1     7.84889     3.92444    -3.92444
   414   2    11.77333     3.92444    -3.92444
   415   2    15.69777     3.92444    -3.92444
   416   2    19.62221     3.92444    -3.92444
   417   1    23.54666     3.92444    -3.92444
   418   2   -19.62221     7.84889    -3.92444
   419   3   -15.69777     7.84889    -3.92444
   420   3   -11.77333     7.84889    -3.92444
   421   3    -7.84889     7.84889    -3.92444
   422   3    -3.92444     7.84889    -3.92444
   423   2     0.00000     7.84889    -3.92444
   424   2     3.92444     7.84889    -3.92444
   425   1     7.84889     7.84889    -3.92444
   426   3    11.77333     7.84889    -3.92444
   427   2    15.69777     7.84889    -3.92444
   428   1    19.62221     7.84889    -3.92444
   429   2   -19.62221    11.77333    -3.92444
   430   1   -15.69777    11.77333    -3.92444
   431   3   -11.77333    11.77333    -3.92444
   432   1    -7.84889    11.77333    -3.92444
   433   1    -3.92444    11.77333    -3.92444
   434   2     0.00000    11.77333    -3.92444
   435   2     3.92444    11.77333    -3.92444
   436   1     7.84889    11.77333    -3.92444
   437   3    11.77333    11.77333    -3.92444
   438   2    15.69777    11.77333    -3.92444
   439   3    19.62221    11.77333    -3.92444
   440   2   -15.69777    15.69777    -3.92444
   441   3   -11.77333    15.69777    -3.92444
   442   1    -7.84889    15.69777    -3.92444
   443   3    -3.92444    15.69777    -3.92444
   444   2     0.00000    15.69777    -3.92444
   445   1     3.92444    15.69777    -3.92444
   446   1     7.84889    15.69777    -3.92444
   447   2    11.77333    15.69777    -3.92444
   448   1    15.69777    15.69777    -3.92444
   449   3   -11.77333    19.62221    -3.92444
   450   1    -7.84889    19.62221    -3.92444
   451   1    -3.92444    19.62221    -3.92444
   452   1     0.00000    19.62221    -3.92444
   453   2     3.92444    19.62221    -3.92444
   454   2     7.84889    19.62221    -3.92444
   455   2    11.77333    19.62221    -3.92444
   456   3    -3.92444    23.54666    -3.92444
   457   3     0.00000    23.54666    -3.92444
   458   2     3.92444    23.54666    -3.92444
   459   2    -7.84889   -23.54666     0.00000
   460   3    -3.92444   -23.54666     0.00000
   461   1     0.00000   -23.54666     0.00000
   462   2     3.92444   -23.54666     0.00000
   463   2     7.84889   -23.54666     0.00000
   464   3   -11.77333   -19.62221     0.00000
   465   3    -7.84889   -19.62221     0.00000
   466   1    -3.92444   -19.62221     0.00000
   467   1     0.00000   -19.62221     0.00000
   468   3     3.92444   -19.62221     0.00000
   469   2     7.84889   -19.62221     0.00000
   470   3    11.77333   -19.62221     0.00000
   471   1   -15.69777   -15.69777     0.00000
   472   2   -11.77333   -15.69777     0.00000
   473   3    -7.84889   -15.69777     0.00000
   474   1    -3.92444   -15.69777     0.00000
   475   2     0.00000   -15.69777     0.00000
   476   2     3.92444   -15.69777     0.00000
   477   2     7.84889   -15.69777     0.00000
   478   2    11.77333   -15.69777     0.00000
   479   1    15.69777   -15.69777     0.00000
   480   2   -19.62221   -11.77333     0.00000
   481   3   -15.69777   -11.77333     0.00000
   482   2   -11.77333   -11.77333     0.00000
   483   3    -7.84889   -11.77333     0.00000
   484   2    -3.92444   -11.77333     0.00000
   485   2     0.00000   -11.77333     0.00000
   486   3     3.92444   -11.77333     0.00000
   487   2     7.84889   -11.77333     0.00000
   488   3    11.77333   -11.77333     0.00000
   489   1    15.69777   -11.77333     0.00000
   490   1    19.62221   -11.77333     0.00000
   491   3   -23.54666    -7.84889     0.00000
   492   3   -19.62221    -7.84889     0.00000
   493   2   -15.69777    -7.84889     0.00000
   494   1   -11.77333    -7.84889     0.00000
   495   3    -7.84889    -7.84889     0.00000
   496   1    -3.92444    -7.84889     0.00000
   497   2     0.00000    -7.84889     0.00000
   498   2     3.92444    -7.84889     0.00000
   499   2     7.84889    -7.84889     0.00000
   500   2    11.77333    -7.84889     0.00000
   501   1    15.69777    -7.84889     0.00000
   502   2    19.62221    -7.84889     0.00000
   503   2    23.54666    -7.84889     0.00000
   504   2   -23.54666    -3.92444     0.00000
   505   3   -19.62221    -3.92444     0.00000
   506   3   -15.69777    -3.92444     0.00000
   507   2   -11.77333    -3.92444     0.00000
   508   2    -7.84889    -3.92444     0.00000
   509   1    -3.92444    -3.92444     0.00000
   510   1     0.00000    -3.92444     0.00000
   511   3     3.92444    -3.92444     0.00000
   512   1     7.84889    -3.92444     0.00000
   513   2    11.77333    -3.92444     0.00000
   514   3    15.69777    -3.92444     0.00000
   515   2    19.62221    -3.92444     0.00000
   516   2    23.54666    -3.92444     0.00000
   517   2   -23.54666     0.00000     0.00000
   518   1   -19.62221     0.00000     0.00000
   519   2   -15.69777     0.00000     0.00000
   520   3   -11.77333     0.00000     0.00000
   521   2    -7.84889     0.00000     0.00000
   522   2    -3.92444     0.00000     0.00000
   523   1     0.00000     0.00000     0.00000
   524   2     3.92444     0.00000     0.00000
   525   3     7.84889     0.00000     0.00000
   526   2    11.77333     0.00000     0.00000
   527   1    15.69777     0.00000     0.00000
   528   1    19.62221     0.00000     0.00000
   529   3    23.54666     0.00000     0.00000
   530   3   -23.54666     3.92444     0.00000
   531   2   -19.62221     3.92444     0.00000
   532   1   -15.69777     3.92444     0.00000
   533   2   -11.77333     3.92444     0.00000
   534   3    -7.84889     3.92444     0.00000
   535   2    -3.92444     3.92444     0.00000
   536   1     0.00000     3.92444     0.00000
   537   1     3.92444     3.92444     0.00000
   538   1     7.84889     3.92444     0.00000
   539   3    11.77333     3.92444     0.00000
   540   1    15.69777     3.92444     0.00000
   541   1    19.62221     3.92444     0.00000
   542   1    23.54666     3.92444     0.00000
   543   1   -23.54666     7.84889     0.00000
   544   1   -19.62221     7.84889     0.00000
   545   3   -15.69777     7.84889     0.00000
   546   2   -11.77333     7.84889     0.00000
   547   1    -7.84889     7.84889     0.00000
   548   2    -3.92444     7.84889     0.00000
   549   3     0.00000     7.84889     0.00000
   550   2     3.92444     7.84889     0.00000
   551   3     7.84889     7.84889     0.00000
   552   1    11.77333     7.84889     0.00000
   553   3    15.69777     7.84889     0.00000
   554   2    19.62221     7.84889     0.00000
   555   1    23.54666     7.84889     0.00000
   556   3   -19.62221    11.77333     0.00000
   557   2   -15.69777    11.77333     0.00000
   558   2   -11.77333    11.77333     0.00000
   559   2    -7.84889    11.77333     0.00000
   560   3    -3.92444    11.77333     0.00000
   561   2     0.00000    11.77333     0.00000
   562   3     3.92444    11.77333     0.00000
   563   2     7.84889    11.77333     0.00000
   564   1    11.77333    11.77333     0.00000
   565   1    15.69777    11.77333     0.00000
   566   2    19.62221    11.77333     0.00000
   567   2   -15.69777    15.69777     0.00000
   568   3   -11.77333    15.69777     0.00000
   569   1    -7.84889    15.69777     0.00000
   570   3    -3.92444    15.69777     0.00000
   571   1     0.00000    15.69777     0.00000
   572   1     3.92444    15.69777     0.00000
   573   2     7.84889    15.69777     0.00000
   574   2    11.77333    15.69777     0.00000
   575   3    15.69777    15.69777     0.00000
   576   1   -11.77333    19.62221     0.00000
   577   1    -7.84889    19.62221     0.00000
   578   1    -3.92444    19.62221     0.00000
   579   2     0.00000    19.62221     0.00000
   580   3     3.92444    19.62221     0.00000
   581   3     7.84889    19.62221     0.00000
   582   2    11.77333    19.62221     0.00000
   583   2    -7.84889    23.54666     0.00000
   584   2    -3.92444    23.54666     0.00000
   585   2     0.00000    23.54666     0.00000
   586   3     3.92444    23.54666     0.00000
   587   3     7.84889    23.54666     0.00000
   588   2    -3.92444   -23.54666     3.92444
   589   1     0.00000   -23.54666     3.92444
   590   2     3.92444   -23.54666     3.92444
   591   3   -11.77333   -19.62221     3.92444
   592   3    -7.84889   -19.62221     3.92444
   593   3    -3.92444   -19.62221     3.92444
   594   2     0.00000   -19.62221     3.92444
   595   2     3.92444   -19.62221     3.92444
   596   2     7.84889   -19.62221     3.92444
   597   2    11.77333   -19.62221     3.92444
   598   3   -15.69777   -15.69777     3.92444
   599   3   -11.77333   -15.69777     3.92444
   600   1    -7.84889   -15.69777     3.92444
   601   2    -3.92444   -15.69777     3.92444
   602   2     0.00000   -15.69777     3.92444
   603   2     3.92444   -15.69777     3.92444
   604   3     7.84889   -15.69777     3.92444
   605   3    11.77333   -15.69777     3.92444
   606   1    15.69777   -15.69777     3.92444
   607   1   -19.62221   -11.77333     3.92444
   608   1   -15.69777   -11.77333     3.92444
   609   2   -11.77333   -11.77333     3.92444
   610   1    -7.84889   -11.77333     3.92444
   611   2    -3.92444   -11.77333     3.92444
   612   1     0.00000   -11.77333     3.92444
   613   1     3.92444   -11.77333     3.92444
   614   2     7.84889   -11.77333     3.92444
   615   1    11.77333   -11.77333     3.92444
   616   2    15.69777   -11.77333     3.92444
   617   2    19.62221   -11.77333     3.92444
   618   1   -19.62221    -7.84889     3.92444
   619   1   -15.69777    -7.84889     3.92444
   620   1   -11.77333    -7.84889     3.92444
   621   1    -7.84889    -7.84889     3.92444
   622   2    -3.92444    -7.84889     3.92444
   623   2     0.00000    -7.84889     3.92444
   624   2     3.92444    -7.84889     3.92444
   625   3     7.84889    -7.84889     3.92444
   626   2    11.77333    -7.84889     3.92444
   627   2    15.69777    -7.84889     3.92444
   628   1    19.62221    -7.84889     3.92444
   629   2   -23.54666    -3.92444     3.92444
   630   3   -19.62221    -3.92444     3.92444
   631   1   -15.69777    -3.92444     3.92444
   632   3   -11.77333    -3.92444     3.92444
   633   1    -7.84889    -3.92444     3.92444
   634   1    -3.92444    -3.92444     3.92444