LAMMPS DATA FOR MEAM SIMULATION

    966   atoms
      2   atom types

  -23.94   24.01   xlo xhi
  -23.94   24.01   ylo yhi
  -23.94   24.01   zlo zhi

 Atoms

     1   2    -3.99099    -7.76936   -11.70050
     2   2     0.02156    -7.92588   -11.81550
     3   2     3.75949    -7.78201   -11.84010
     4   1    -7.73940    -3.91641   -11.64300
     5   2    -3.83829    -3.96979   -11.79200
     6   2     0.00887    -3.93597   -11.90010
     7   2     3.86527    -3.91341   -11.89490
     8   2     7.71605    -3.98122   -11.73040
     9   1    -7.78871     0.08155   -11.73390
    10   2    -3.95291    -0.02850   -11.75590
    11   2    -0.07226     0.04182   -11.87050
    12   2     3.86238    -0.01443   -11.82360
    13   2     7.74645    -0.07663   -11.86790
    14   1    -7.73001     3.88289   -11.57660
    15   2    -3.90022     3.92008   -11.70720
    16   2    -0.12308     4.00880   -11.88500
    17   2     3.84039     3.97651   -11.96020
    18   2     7.88994     3.93584   -11.88080
    19   2    -3.92993     7.68875   -11.59300
    20   2    -0.02980     7.90626   -11.87810
    21   2     3.86874     7.95308   -11.88710
    22   2    -3.97930   -11.76990    -7.81170
    23   2    -0.04677   -11.75280    -7.81869
    24   2     3.87413   -11.74250    -7.89828
    25   1    -7.83799    -7.84086    -7.86528
    26   2    -3.88602    -7.83429    -7.88298
    27   2     0.01987    -7.89064    -7.96787
    28   2     3.94256    -7.86425    -7.92178
    29   2     7.71682    -7.80362    -7.96515
    30   1   -11.74450    -3.84054    -7.81418
    31   1    -7.93127    -3.89047    -7.83820
    32   2    -3.86312    -3.90699    -7.76700
    33   2     0.04546    -3.96768    -7.95340
    34   2     3.90365    -3.98151    -7.89188
    35   2     7.65205    -3.91622    -7.92883
    36   2    11.60580    -3.94491    -7.77483
    37   1   -11.69490     0.03182    -7.89198
    38   1    -7.76687    -0.01257    -7.89840
    39   2    -3.80611    -0.08319    -7.86138
    40   2     0.09404     0.09466    -7.89360
    41   2     3.95408     0.07009    -7.89251
    42   2     7.94455     0.05502    -7.96674
    43   2    11.72450     0.04017    -8.03028
    44   1   -11.74380     3.94779    -7.76004
    45   1    -7.85465     3.90283    -7.77777
    46   2    -3.87254     3.91632    -7.86266
    47   2     0.03236     3.86097    -7.93595
    48   2     4.05833     4.03493    -7.88698
    49   2     7.89533     3.98787    -7.80598
    50   2    11.65850     3.96359    -7.85918
    51   1    -7.80422     7.89915    -7.71248
    52   2    -3.94204     7.81252    -7.83095
    53   2     0.05326     7.77949    -7.98367
    54   2     3.80026     7.82639    -7.90070
    55   2     7.76661     7.87665    -7.73947
    56   2    -3.83751    11.70540    -7.83336
    57   2    -0.02583    11.73950    -7.81823
    58   2     3.92191    11.75550    -7.85209
    59   1    -7.93256   -11.63620    -3.82798
    60   2    -3.98725   -11.61670    -4.00514
    61   2     0.10926   -11.82090    -3.89219
    62   2     3.89001   -11.85730    -3.99733
    63   2     7.80898   -11.79660    -4.01558
    64   1   -11.78370    -7.80541    -3.86569
    65   1    -7.86563    -7.74118    -3.97941
    66   2    -3.90733    -7.86917    -3.97707
    67   2     0.07470    -7.81506    -3.91730
    68   2     3.98936    -7.95125    -3.99231
    69   2     7.92993    -7.93398    -3.97565
    70   2    11.67820    -7.79162    -3.95171
    71   1   -11.82810    -4.00747    -3.95307
    72   1    -7.78838    -3.86651    -3.91127
    73   2    -3.93475    -3.98186    -3.89113
    74   2     0.08125    -3.92576    -3.85636
    75   2     3.88781    -3.93285    -3.94212
    76   2     7.88491    -3.90353    -4.01443
    77   2    11.70440    -3.88564    -3.90918
    78   1   -11.77010    -0.05049    -3.85054
    79   1    -7.85675    -0.07314    -3.92934
    80   2    -3.78519     0.03861    -3.87929
    81   2     0.01754    -0.07771    -3.97993
    82   2     4.02128    -0.02441    -4.03559
    83   2     7.89685     0.00288    -3.98410
    84   2    11.78540     0.03457    -3.86759
    85   1   -11.68950     3.86077    -3.91485
    86   1    -7.76398     3.88517    -3.88941
    87   2    -3.85446     3.84053    -3.88465
    88   2     0.07438     3.82077    -3.86472
    89   2     3.88054     3.89872    -3.83865
    90   2     7.84432     3.91833    -3.87963
    91   2    11.79310     4.02019    -3.87516
    92   1   -11.82120     7.83462    -3.77967
    93   1    -7.82867     7.84814    -3.89099
    94   2    -3.84686     7.81674    -3.92512
    95   2     0.01729     7.84864    -4.04015
    96   2     3.87610     7.75735    -3.89975
    97   2     7.74489     7.79866    -3.98336
    98   2    11.61600     7.94132    -3.94681
    99   1    -7.71442    11.72620    -3.78984
   100   2    -3.78384    11.72180    -4.02020
   101   2    -0.05410    11.91550    -3.88611
   102   2     3.92169    11.76600    -4.01885
   103   2     7.79361    11.66820    -3.91079
   104   1    -7.95755   -11.73900     0.01689
   105   2    -3.98011   -11.84650     0.03138
   106   2     0.04163   -11.75890    -0.03919
   107   2     3.92643   -11.80090    -0.02933
   108   2     7.94721   -11.78920    -0.01696
   109   1   -11.81680    -7.77365     0.08543
   110   1    -7.82388    -7.76980    -0.04894
   111   2    -3.83674    -7.92705    -0.08932
   112   2     0.08729    -7.88290     0.07696
   113   2     3.91325    -7.86048     0.03409
   114   2     7.86924    -7.90907    -0.03606
   115   2    11.86310    -7.98950    -0.00989
   116   1   -11.76190    -4.01225    -0.04295
   117   1    -7.88260    -3.89160    -0.10265
   118   2    -3.76768    -3.91966    -0.00882
   119   2     0.02453    -3.93545     0.12400
   120   2     3.95168    -3.91182     0.00379
   121   2     7.84026    -3.84893    -0.14802
   122   2    11.80690    -3.89244     0.04323
   123   1   -11.77730    -0.10738    -0.03875
   124   1    -7.79248    -0.01921     0.05320
   125   2    -3.84150    -0.06473    -0.01241
   126   2     0.04373    -0.09263     0.15272
   127   2     3.90721    -0.02058    -0.01929
   128   2     7.83055    -0.04674    -0.11964
   129   2    11.77220     0.02998     0.06533
   130   1   -11.82710     3.83390    -0.07506
   131   1    -7.75477     3.91584    -0.06604
   132   2    -3.79579     3.86368     0.01497
   133   2     0.08273     3.98261     0.04011
   134   2     3.89373     3.96660     0.03222
   135   2     7.79162     3.88184     0.03114
   136   2    11.77250     4.04108     0.08979
   137   1   -11.72230     7.77426    -0.10348
   138   1    -7.82395     7.81612    -0.00150
   139   2    -3.76524     7.79492    -0.05804
   140   2     0.01882     7.89283     0.00247
   141   2     3.84794     7.93371     0.08894
   142   2     7.83984     7.87916     0.00162
   143   2    11.81570     7.94074     0.04437
   144   1    -7.79878    11.83170    -0.02076
   145   2    -3.82275    11.80310     0.01455
   146   2     0.07531    11.81930    -0.08458
   147   2     3.97386    11.76910    -0.03267
   148   2     7.81417    11.81030     0.04588
   149   1    -8.02617   -11.75240     4.05176
   150   2    -3.96998   -11.73080     3.90299
   151   2     0.03100   -11.75810     3.84305
   152   2     3.95896   -11.79060     3.92167
   153   2     7.86662   -11.77900     3.88601
   154   1   -11.76680    -7.59116     3.86861
   155   1    -7.90697    -7.74124     3.94470
   156   2    -3.98207    -7.75346     3.84279
   157   2     0.17428    -7.85917     4.00334
   158   2     3.92540    -7.93791     3.83622
   159   2     7.89696    -7.84005     3.82447
   160   2    11.81010    -7.95419     3.91834
   161   1   -11.83920    -3.82546     4.09108
   162   1    -7.81303    -4.02663     3.95553
   163   2    -3.93463    -3.99459     4.02472
   164   2     0.10395    -3.95330     4.05796
   165   2     3.99120    -3.98929     3.95350
   166   2     7.81131    -4.00561     3.98212
   167   2    11.65840    -3.93384     3.93992
   168   1   -11.79480    -0.01563     3.88085
   169   1    -7.79858    -0.01972     3.85868
   170   2    -3.86191    -0.06327     3.98814
   171   2    -0.01110    -0.03679     4.06792
   172   2     3.89300    -0.04295     4.01748
   173   2     7.87230     0.11880     4.00017
   174   2    11.66030     0.04780     3.97991
   175   1   -11.70970     3.77439     3.78632
   176   1    -7.78028     3.98352     3.93750
   177   2    -3.87154     3.96659     3.91640
   178   2     0.16434     3.98624     4.03172
   179   2     3.97339     3.90667     3.97489
   180   2     7.74473     3.97063     4.00111
   181   2    11.75220     3.99797     3.93620
   182   1   -11.74110     7.65531     3.76564
   183   1    -7.87739     7.69356     3.96980
   184   2    -3.83922     7.79862     3.88806
   185   2    -0.00301     7.94409     3.87964
   186   2     3.96367     7.92204     4.09663
   187   2     7.84888     7.90900     4.05117
   188   2    11.68860     7.97173     3.87519
   189   1    -7.77530    11.70330     3.92906
   190   2    -3.93721    11.83290     3.87549
   191   2    -0.06963    11.85360     3.93578
   192   2     3.91671    11.83280     3.94158
   193   2     7.80397    11.82600     3.99171
   194   2    -4.02692   -11.57860     7.69331
   195   2    -0.02477   -11.76700     7.85528
   196   2     3.93613   -11.76390     7.91359
   197   1    -7.88586    -7.71377     7.90660
   198   2    -3.99194    -7.89530     7.76365
   199   2     0.00238    -7.96442     7.95045
   200   2     3.92805    -7.87979     7.88976
   201   2     7.88012    -7.95632     7.82192
   202   1   -11.81770    -3.83771     7.78511
   203   1    -7.77609    -3.83924     7.84930
   204   2    -4.01541    -4.03494     7.93484
   205   2     0.03021    -4.00179     7.97727
   206   2     3.94585    -3.96518     7.86753
   207   2     7.80645    -4.00234     7.93870
   208   2    11.72950    -3.87792     7.74120
   209   1   -11.77050     0.04545     7.87687
   210   1    -7.80893    -0.01233     7.86027
   211   2    -4.01135     0.04330     7.77543
   212   2     0.06046     0.06430     8.00477
   213   2     3.99130    -0.00523     7.92410
   214   2     7.87183    -0.01231     7.94217
   215   2    11.61320     0.05893     7.87838
   216   1   -11.76080     3.87688     7.68657
   217   1    -7.91950     3.93702     7.88929
   218   2    -3.91086     3.88569     7.90755
   219   2    -0.07668     4.00490     7.95230
   220   2     3.94692     3.89517     8.01013
   221   2     7.83152     4.12683     7.91620
   222   2    11.69420     3.90033     7.87301
   223   1    -7.88350     7.86829     7.83448
   224   2    -3.97973     7.93401     7.78388
   225   2     0.04684     7.76780     7.85063
   226   2     3.91333     7.89132     7.82234
   227   2     7.83950     7.98830     7.91893
   228   2    -3.89657    11.75430     7.70952
   229   2     0.00386    11.82920     7.71811
   230   2     3.95381    11.74480     7.77282
   231   2    -3.94692    -7.77462    11.72610
   232   2    -0.03567    -7.87368    11.81380
   233   2     3.99915    -7.92743    11.79460
   234   1    -7.86979    -3.84733    11.81300
   235   2    -3.90514    -3.98274    11.82280
   236   2    -0.01221    -4.10235    11.81340
   237   2     3.88682    -3.94074    11.83650
   238   2     7.81944    -4.05391    11.82770
   239   1    -7.84047    -0.03813    11.81740
   240   2    -3.84108    -0.03605    11.81340
   241   2    -0.01079    -0.03487    11.96250
   242   2     3.90926     0.01073    11.79130
   243   2     7.82031    -0.01923    11.77270
   244   1    -7.72213     3.95822    11.81160
   245   2    -3.84328     3.99066    11.73360
   246   2     0.01936     3.92349    11.99440
   247   2     3.88937     3.97914    11.78240
   248   2     7.85435     4.10970    11.78700
   249   2    -3.87392     7.88343    11.72280
   250   2    -0.03143     8.02304    11.81820
   251   2     3.82999     7.94256    11.69420
   252   2    -5.78884    -5.88669   -11.70490
   253   2    -1.88496    -5.88777   -11.73310
   254   2     1.92995    -5.86165   -11.91790
   255   2     5.69417    -5.93794   -11.86680
   256   1    -9.60184    -1.93668   -11.63290
   257   1    -5.85378    -1.86230   -11.73650
   258   2    -1.88275    -1.97998   -11.89330
   259   2     1.97034    -1.88299   -11.89540
   260   2     5.74582    -2.00615   -11.92860
   261   1    -9.66454     2.07143   -11.57980
   262   1    -5.86902     1.95539   -11.68850
   263   2    -1.98195     2.04928   -11.80170
   264   2     1.94130     2.01831   -11.83610
   265   2     5.87214     1.99087   -11.83010
   266   1    -5.86774     5.78830   -11.63320
   267   2    -2.03219     5.79821   -11.74310
   268   2     1.87941     5.88980   -11.93360
   269   2     5.78619     5.93184   -11.84820
   270   2    -5.83099    -9.74704    -7.81443
   271   2    -2.04102    -9.81808    -7.89956
   272   2     1.89516    -9.77321    -7.80316
   273   2     5.72220    -9.88283    -7.90128
   274   1    -9.91216    -5.92927    -7.89859
   275   1    -5.85354    -5.92448    -7.78080
   276   2    -1.93050    -5.87185    -7.73960
   277   2     1.98896    -5.97732    -7.84835
   278   2     5.84902    -5.88951    -7.92967
   279   2     9.68724    -5.95323    -7.78803
   280   1    -9.78482    -1.92463    -7.85536
   281   1    -5.85117    -1.95111    -7.89426
   282   2    -1.91663    -2.00660    -7.86525
   283   2     1.91997    -2.00766    -7.97377
   284   2     5.85921    -1.88666    -7.94277
   285   2     9.75983    -2.04957    -7.92712
   286   1    -9.70147     1.96531    -7.79135
   287   2    -5.75730     2.00309    -7.78160
   288   2    -1.89765     1.93349    -7.91237
   289   2     2.09072     2.04698    -7.87650
   290   2     5.96286     2.02585    -8.00413
   291   2     9.80149     1.96924    -7.96155
   292   1    -9.81484     5.86201    -7.65900
   293   1    -5.85613     5.90840    -7.76941
   294   2    -1.95375     5.96798    -7.79221
   295   2     1.93968     5.77272    -7.83601
   296   2     5.80233     5.93594    -7.98976
   297   2     9.69501     5.92033    -7.97454
   298   1    -5.91166     9.85369    -7.77735
   299   2    -1.85637     9.72483    -7.88905
   300   2     1.96658     9.75814    -7.85534
   301   2     5.82064     9.77017    -7.75607
   302   2    -2.01099   -13.71360    -3.90420
   303   2     2.04374   -13.86110    -3.89536
   304   1    -9.76465    -9.76592    -3.87824
   305   2    -5.84423    -9.81774    -3.91493
   306   2    -1.92855    -9.84194    -3.95137
   307   2     2.03092    -9.80396    -3.94078
   308   2     5.99895    -9.82239    -3.93095
   309   2     9.75339    -9.85499    -3.94873
   310   1    -9.79027    -5.76336    -3.93116
   311   1    -5.87593    -5.85963    -3.85952
   312   2    -1.93582    -5.92553    -3.92662
   313   2     2.01707    -5.97451    -3.90002
   314   2     5.98231    -5.87641    -3.94320
   315   2     9.76954    -5.88981    -4.00726
   316   1   -13.68290    -1.98620    -4.00439
   317   1    -9.79843    -1.96054    -3.99403
   318   2    -5.83736    -1.94810    -3.90499
   319   2    -1.86890    -1.96633    -3.86321
   320   2     1.95332    -1.99018    -3.91933
   321   2     5.92250    -1.96153    -3.96314
   322   2     9.78403    -1.99410    -3.99219
   323   2    13.67870    -1.91403    -3.98154
   324   1   -13.74860     1.92801    -3.87659
   325   1    -9.70269     1.87889    -3.89549
   326   2    -5.76609     2.01420    -3.91343
   327   2    -1.93818     1.96265    -3.90413
   328   2     2.03052     1.94196    -3.86302
   329   2     5.85957     1.88703    -3.89751
   330   2     9.81199     1.94166    -3.97347
   331   2    13.67810     2.05306    -3.89214
   332   1   -13.50240     5.74366    -3.80735
   333   1    -9.76632     5.88936    -3.94051
   334   2    -5.84861     5.85011    -3.90428
   335   2    -1.92679     5.81343    -3.95068
   336   2     1.92693     5.84193    -3.84655
   337   2     5.86764     5.88963    -3.88358
   338   2     9.83896     6.00651    -3.92340
   339   1    -9.71990     9.75168    -3.80196
   340   2    -5.81717     9.78677    -3.94009
   341   2    -1.94864     9.76346    -4.02998
   342   2     1.95166     9.85622    -3.92500
   343   2     5.88201     9.82466    -3.83880
   344   2     9.65470     9.73583    -3.88766
   345   2    -1.93576    13.94170    -4.00144
   346   2     1.95546    13.75860    -3.98715
   347   1    -6.07149   -13.66440    -0.00525
   348   2    -1.92408   -13.73970    -0.07687
   349   2     2.01331   -13.67470     0.02436
   350   2     5.96765   -13.74940    -0.04628
   351   1    -9.82267    -9.74667    -0.04748
   352   1    -5.87460    -9.86625    -0.01092
   353   2    -1.90557    -9.87641     0.05421
   354   2     2.01314    -9.92706     0.02936
   355   2     5.99560    -9.90558    -0.02247
   356   2     9.78796    -9.80177     0.00692
   357   1   -13.80990    -5.90041     0.02577
   358   1    -9.78929    -5.90351     0.07141
   359   1    -5.85071    -5.99659    -0.00202
   360   2    -1.88174    -5.85134    -0.06272
   361   2     1.99744    -5.86103     0.10848
   362   2     5.91420    -5.93015    -0.00085
   363   2     9.87933    -5.86385     0.07421
   364   2    13.68880    -5.91209     0.03989
   365   1   -13.77630    -2.02092    -0.11956
   366   1    -9.84098    -1.98793     0.00948
   367   2    -5.79787    -2.05919    -0.00129
   368   2    -1.84699    -1.99466     0.08260
   369   2     2.03318    -1.93834     0.12246
   370   2     5.89392    -1.95717     0.04460
   371   2     9.84069    -1.88078    -0.05264
   372   2    13.59230    -1.93942     0.05169
   373   1   -13.74020     1.88679    -0.11485
   374   1    -9.79606     1.91174     0.03219
   375   2    -5.80133     1.97018     0.07756
   376   2    -1.80488     1.85323     0.04358
   377   2     2.03887     1.94236     0.07227
   378   2     5.82968     1.97213     0.07830
   379   2     9.82452     1.93643    -0.00282
   380   2    13.69180     2.08126     0.04306
   381   1   -13.88130     5.75618    -0.11974
   382   1    -9.77934     5.86070     0.00031
   383   1    -5.87438     5.92391    -0.06330
   384   2    -1.82784     5.84417     0.00319
   385   2     1.93963     5.92903     0.01036
   386   2     5.79334     5.96277     0.09560
   387   2     9.85525     5.87670     0.05536
   388   2    13.79720     5.90594     0.07948
   389   1    -9.71330     9.80182    -0.05092
   390   2    -5.77321     9.86969    -0.00490
   391   2    -1.96632     9.81768    -0.04847
   392   2     1.94755     9.89415    -0.05577
   393   2     5.87564     9.84897     0.02900
   394   2     9.76077     9.88624     0.02207
   395   2    -5.82988    13.80390    -0.04060
   396   2    -2.02391    13.80770    -0.06737
   397   2     2.03957    13.70250     0.00438
   398   2     5.81241    13.76850     0.02733
   399   2    -2.00862   -13.74150     3.92274
   400   2     2.02422   -13.73630     3.86918
   401   1    -9.80846    -9.59313     3.93361
   402   1    -5.97971    -9.78937     3.79363
   403   2    -1.97874    -9.83290     3.85670
   404   2     2.02413    -9.89795     3.93184
   405   2     5.97727    -9.88414     3.82355
   406   2     9.79254    -9.79268     3.87673
   407   1    -9.78920    -5.82345     3.93303
   408   1    -5.89885    -5.94437     3.96189
   409   2    -1.89582    -5.82517     4.11504
   410   2     1.99392    -5.98495     3.96789
   411   2     5.86933    -5.93520     3.95098
   412   2     9.74106    -5.92886     3.92403
   413   1   -13.80250    -1.90255     3.81179
   414   1    -9.75934    -1.94952     3.92173
   415   1    -5.88325    -2.00983     3.91947
   416   2    -1.92458    -1.94287     4.03468
   417   2     1.98338    -1.96673     4.00422
   418   2     6.02479    -1.97685     3.94121
   419   2     9.76467    -1.94950     3.99758
   420   2    13.70150    -1.86503     4.00718
   421   1   -13.77850     1.94901     3.83752
   422   1    -9.78858     1.86789     3.85458
   423   2    -5.69017     1.92453     3.93308
   424   2    -1.94219     1.94735     4.00956
   425   2     1.97604     1.95342     4.04017
   426   2     5.76039     1.90715     3.97264
   427   2     9.84054     2.00242     4.03170
   428   2    13.62530     2.05215     3.92198
   429   1    -9.86046     5.84418     3.85260
   430   2    -5.77275     6.02751     3.89834
   431   2    -1.81457     5.85585     3.97139
   432   2     1.99375     5.88578     3.94656
   433   2     5.86938     5.98154     3.88777
   434   2     9.69710     5.97347     3.93914
   435   1    -9.69093     9.53264     3.91525
   436   2    -5.80227     9.77896     3.89443
   437   2    -1.96985     9.77194     3.85175
   438   2     2.00811     9.83736     3.93646
   439   2     5.89458     9.80908     3.90955
   440   2     9.78591     9.85513     3.88221
   441   2    -1.98153    13.72150     3.85142
   442   2     1.92142    13.62240     3.91014
   443   1    -6.15454    -9.78818     7.89567
   444   2    -1.98190    -9.78128     7.78554
   445   2     1.93373    -9.80963     7.82519
   446   2     5.91399    -9.90520     7.85186
   447   1    -9.85880    -5.73329     7.93612
   448   2    -5.83619    -5.99274     8.04976
   449   2    -1.97317    -5.95391     7.85989
   450   2     1.97089    -5.96739     7.93031
   451   2     5.93518    -5.91002     7.93821
   452   2     9.89165    -6.00617     7.83475
   453   1    -9.73380    -1.94502     7.86929
   454   1    -5.90495    -1.93604     7.81816
   455   2    -1.93046    -2.04026     7.96268
   456   2     1.95961    -2.06653     7.89127
   457   2     5.88094    -1.90378     7.95243
   458   2     9.75559    -1.99158     7.95981
   459   1    -9.73687     1.97189     7.89833
   460   1    -6.01212     2.04032     7.87932
   461   2    -1.91250     2.02869     7.86485
   462   2     2.02244     2.00511     7.90459
   463   2     5.89554     1.97964     7.98181
   464   2     9.76783     1.99317     7.98124
   465   1    -9.76910     5.83438     7.78673
   466   1    -5.99874     5.88473     7.84359
   467   2    -1.99550     5.97798     7.94731
   468   2     1.98268     5.85615     7.95212
   469   2     5.91205     6.07983     7.95169
   470   2     9.84349     5.91205     7.97595
   471   1    -5.96738     9.84454     7.83058
   472   2    -1.98244     9.83149     7.76142
   473   2     1.88310     9.83297     7.79648
   474   2     5.90566     9.90419     7.90898
   475   1    -5.86946    -5.80124    11.85160
   476   2    -2.01950    -6.02416    11.84920
   477   2     1.96746    -5.94491    11.84130
   478   2     5.79090    -5.83225    11.85270
   479   1    -5.92208    -1.92082    11.82150
   480   2    -1.90797    -1.93345    11.84120
   481   2     2.02892    -1.97228    11.84450
   482   2     5.90429    -2.05664    11.79900
   483   2    -5.78990     1.85731    11.71430
   484   2    -1.88929     1.97078    11.93140
   485   2     1.92880     1.94823    11.90220
   486   2     5.83765     1.92485    11.79730
   487   1    -5.90848     5.93180    11.76670
   488   2    -2.03520     6.00745    11.80030
   489   2     1.79844     6.04198    11.82770
   490   2     5.71239     5.91745    11.69090
   491   1    -5.92193   -11.76440    -5.99870
   492   2    -1.97476   -11.76990    -5.92983
   493   2     1.92478   -11.72730    -5.96897
   494   2     5.86847   -11.75660    -6.04372
   495   1    -5.97461   -11.72310    -1.92949
   496   2    -1.95477   -11.78930    -2.06247
   497   2     2.07814   -11.77620    -1.91511
   498   2     5.90719   -11.74290    -2.10020
   499   1    -6.03370   -11.73190     2.02501
   500   2    -1.88872   -11.86240     1.89452
   501   2     1.92536   -11.69530     1.99526
   502   2     6.00715   -11.80790     1.87227
   503   1    -5.96422   -11.72210     5.78759
   504   2    -1.89770   -11.81810     5.78856
   505   2     2.03106   -11.82100     5.93762
   506   2     5.92718   -11.85020     5.81159
   507   1    -5.91184    -7.74919    -9.78532
   508   2    -1.90095    -7.80115    -9.85332
   509   2     1.97023    -7.84618    -9.89537
   510   2     5.69219    -7.90000    -9.89742
   511   1    -9.76367    -7.84027    -5.77151
   512   1    -5.86997    -7.89245    -5.89716
   513   2    -1.88434    -7.81566    -5.90830
   514   2     1.95657    -7.82888    -5.92297
   515   2     5.95223    -7.92741    -5.92887
   516   2     9.74609    -7.82845    -5.92901
   517   1    -9.82159    -7.72763    -1.97794
   518   1    -5.85300    -7.92876    -1.95993
   519   2    -1.94446    -7.87693    -1.96186
   520   2     1.98603    -7.89259    -1.88919
   521   2     5.88289    -7.88503    -2.05088
   522   2     9.91180    -7.83589    -1.94667
   523   1    -9.72058    -7.75852     1.88291
   524   2    -5.81589    -7.88122     1.88589
   525   2    -1.91265    -7.79831     2.11717
   526   2     2.06302    -7.96158     2.00820
   527   2     5.91072    -7.95765     1.91465
   528   2     9.81986    -7.88086     1.95365
   529   1    -9.97496    -7.72599     5.98628
   530   1    -5.92763    -7.87758     5.85872
   531   2    -1.94571    -7.80818     5.92006
   532   2     2.00565    -7.84691     5.99436
   533   2     5.91896    -8.03212     5.90254
   534   2     9.82770    -7.89002     5.82587
   535   1    -5.94737    -7.87016     9.87701
   536   2    -2.04927    -7.92902     9.67133
   537   2     1.95626    -7.80890     9.83878
   538   2     5.88207    -7.87558     9.83818
   539   2    -1.87364    -4.06116   -13.86790
   540   2     1.93329    -3.81262   -13.93600
   541   1    -9.72354    -3.91187    -9.78735
   542   2    -5.83726    -3.92283    -9.68549
   543   2    -1.90042    -4.01826    -9.86956
   544   2     1.98585    -3.97673    -9.86517
   545   2     5.74632    -3.96927    -9.85177
   546   2     9.68856    -4.00939    -9.78385
   547   1    -9.81128    -3.87672    -5.94302
   548   1    -5.97909    -3.94103    -5.88044
   549   2    -1.95331    -3.86631    -5.82995
   550   2     1.92761    -3.96793    -6.01761
   551   2     5.78546    -4.03395    -5.94540
   552   2     9.73514    -3.93390    -6.03377
   553   1   -13.85760    -3.90311    -2.06322
   554   1    -9.90506    -3.95707    -2.01741
   555   1    -5.88257    -3.98434    -1.91314
   556   2    -1.89161    -3.96214    -1.94246
   557   2     2.05321    -3.96504    -1.95352
   558   2     5.99506    -3.96924    -1.96332
   559   2     9.79994    -3.97713    -2.04128
   560   2    13.63530    -3.83976    -1.94602
   561   1   -13.72750    -3.92544     1.92995
   562   1    -9.90624    -3.94826     1.96727
   563   1    -5.85586    -3.98802     1.96910
   564   2    -1.88182    -3.93158     2.10534
   565   2     2.10137    -3.94338     2.04389
   566   2     5.98827    -4.02513     1.99876
   567   2     9.70134    -3.83373     1.96283
   568   2    13.80660    -3.93316     1.98150
   569   1    -9.83633    -3.87530     5.91700
   570   2    -5.84926    -3.95503     5.95647
   571   2    -1.89948    -3.91875     6.07163
   572   2     2.08222    -3.97215     5.94459
   573   2     5.85727    -3.92913     5.83906
   574   2     9.77304    -3.97469     5.88027
   575   1    -9.75287    -3.90081     9.75050
   576   1    -5.99719    -3.89462     9.78175
   577   2    -1.89342    -3.98000     9.83133
   578   2     2.00532    -4.08484     9.82493
   579   2     5.87154    -3.89007     9.83925
   580   2     9.70511    -3.87451     9.88053
   581   2    -2.09291    -4.02985    13.76910
   582   2     1.90248    -4.02114    13.79120
   583   2    -5.73539    -0.05906   -13.77660
   584   2    -1.96293     0.04905   -13.69020
   585   2     1.87540    -0.00747   -13.84210
   586   2     5.89914    -0.00379   -13.60830
   587   1    -9.74080     0.06670    -9.76350
   588   2    -5.83802    -0.00888    -9.77151
   589   2    -1.75675    -0.07231    -9.83268
   590   2     2.02640     0.01080    -9.88897
   591   2     5.83059    -0.00730    -9.90328
   592   2     9.77607    -0.04748   -10.04080
   593   1   -13.84730     0.06098    -5.84262
   594   1    -9.82856    -0.02686    -5.91318
   595   2    -5.77114    -0.03885    -5.94071
   596   2    -1.86240     0.01604    -5.91264
   597   2     1.99704    -0.01757    -5.89651
   598   2     6.03410     0.01519    -5.95601
   599   2     9.82518    -0.00747    -5.97590
   600   2    13.60320     0.08880    -5.91085
   601   1   -13.82370    -0.00475    -1.92692
   602   1    -9.83406    -0.06222    -1.90718
   603   2    -5.82848    -0.02901    -1.92425
   604   2    -1.85622     0.00649    -1.87463
   605   2     1.96208    -0.05088    -1.89524
   606   2     5.77262    -0.01581    -1.90584
   607   2     9.75864    -0.06064    -1.98971
   608   2    13.57350     0.06407    -1.89462
   609   1   -13.81320     0.00443     1.90247
   610   1    -9.80094    -0.00609     1.90866
   611   2    -5.79305     0.00644     1.96325
   612   2    -1.87838     0.01350     2.06379
   613   2     1.96864    -0.02765     2.13404
   614   2     5.91458     0.02791     1.96471
   615   2     9.75177    -0.05784     1.98450
   616   2    13.69080     0.03862     2.01081
   617   1   -13.77790    -0.01113     5.81621
   618   1    -9.71390    -0.05460     5.83799
   619   1    -5.95705    -0.04984     5.90526
   620   2    -1.97645    -0.05279     6.00788
   621   2     1.92378     0.10098     5.91411
   622   2     5.86609     0.03461     5.94424
   623   2     9.75996     0.01267     5.96095
   624   2    13.60480    -0.00129     5.88566
   625   1    -9.75379     0.10233     9.83959
   626   1    -5.93019     0.07911     9.80764
   627   2    -2.01214     0.08422     9.72175
   628   2     1.91962    -0.03810     9.93087
   629   2     5.90292    -0.11081     9.92141
   630   2     9.78353    -0.00084     9.91542
   631   2    -5.80101    -0.15920    13.78350
   632   2    -1.87350    -0.02870    13.84610
   633   2     1.97469    -0.06910    13.79770
   634   2     5.86018    -0.03025    13.70920