LAMMPS DATA FOR MEAM SIMULATION

    881   atoms
      2   atom types

  -24.94   24.94   xlo xhi
  -24.94   24.94   ylo yhi
  -24.94   24.94   zlo zhi

 Atoms

     1   2     0.00000    -0.00000     0.00000
     2   2     2.77500    -0.00000     0.00000
     3   2     1.38750     2.40322     0.00000
     4   2    -1.38750     2.40322     0.00000
     5   2    -2.77500    -0.00000     0.00000
     6   2    -1.38750    -2.40322     0.00000
     7   2     1.38750    -2.40322     0.00000
     8   2     1.38750    -0.80107     2.26578
     9   2     0.00000     1.60215     2.26578
    10   2    -1.38750    -0.80107     2.26578
    11   2     0.00000    -1.60215    -2.26578
    12   2     1.38750     0.80107    -2.26578
    13   2    -1.38750     0.80107    -2.26578
    14   2     8.32500    -0.00000     0.00000
    15   2     4.16250     7.20966     0.00000
    16   2    -4.16250     7.20966     0.00000
    17   2    -8.32500    -0.00000     0.00000
    18   2    -4.16250    -7.20966     0.00000
    19   2     4.16250    -7.20966     0.00000
    20   2     4.16250    -2.40322     6.79733
    21   2     0.00000     4.80644     6.79733
    22   2    -4.16250    -2.40322     6.79733
    23   2     0.00000    -4.80644    -6.79733
    24   2     4.16250     2.40322    -6.79733
    25   2    -4.16250     2.40322    -6.79733
    26   2     6.93750     2.40322     0.00000
    27   2     6.93750    -0.80107     2.26578
    28   2     6.93750     0.80107    -2.26578
    29   2     1.38750     7.20966     0.00000
    30   2     2.77500     6.40859     2.26578
    31   2     4.16250     5.60751    -2.26578
    32   2    -5.55000     4.80644     0.00000
    33   2    -2.77500     6.40859     2.26578
    34   2    -4.16250     5.60751    -2.26578
    35   2    -6.93750    -2.40322     0.00000
    36   2    -6.93750    -0.80107     2.26578
    37   2    -6.93750     0.80107    -2.26578
    38   2    -1.38750    -7.20966     0.00000
    39   2    -4.16250    -5.60751     2.26578
    40   2    -2.77500    -6.40859    -2.26578
    41   2     5.55000    -4.80644     0.00000
    42   2     4.16250    -5.60751     2.26578
    43   2     2.77500    -6.40859    -2.26578
    44   2     2.77500    -0.00000     6.79733
    45   2     1.38750    -2.40322     6.79733
    46   2    -1.38750     2.40322     6.79733
    47   2     1.38750    -2.40322    -6.79733
    48   2    -1.38750    -2.40322    -6.79733
    49   2     1.38750     2.40322    -6.79733
    50   2     5.55000     4.80644     0.00000
    51   2     5.55000    -1.60215     4.53156
    52   2     5.55000     1.60215    -4.53156
    53   2    -1.38750     7.20966     0.00000
    54   2     1.38750     5.60751     4.53156
    55   2     4.16250     4.00537    -4.53156
    56   2    -6.93750     2.40322     0.00000
    57   2    -1.38750     5.60751     4.53156
    58   2    -4.16250     4.00537    -4.53156
    59   2    -5.55000    -4.80644     0.00000
    60   2    -5.55000    -1.60215     4.53156
    61   2    -5.55000     1.60215    -4.53156
    62   2     1.38750    -7.20966     0.00000
    63   2    -4.16250    -4.00537     4.53156
    64   2    -1.38750    -5.60751    -4.53156
    65   2     6.93750    -2.40322     0.00000
    66   2     4.16250    -4.00537     4.53156
    67   2     1.38750    -5.60751    -4.53156
    68   2     1.38750     2.40322     6.79733
    69   2    -1.38750    -2.40322     6.79733
    70   2    -2.77500    -0.00000     6.79733
    71   2     2.77500    -0.00000    -6.79733
    72   2    -2.77500    -0.00000    -6.79733
    73   2    -1.38750     2.40322    -6.79733
    74   2     5.55000     3.20429    -2.26578
    75   2     0.00000     6.40859     2.26578
    76   2    -5.55000     3.20429    -2.26578
    77   2    -5.55000    -3.20429     2.26578
    78   2     0.00000    -6.40859    -2.26578
    79   2     5.55000    -3.20429     2.26578
    80   2     0.00000    -0.00000     6.79733
    81   2     0.00000    -0.00000    -6.79733
    82   2     5.55000     1.60215     2.26578
    83   2     1.38750     5.60751    -2.26578
    84   2    -4.16250     4.00537     2.26578
    85   2    -5.55000    -1.60215    -2.26578
    86   2    -1.38750    -5.60751     2.26578
    87   2     4.16250    -4.00537    -2.26578
    88   2     4.16250     0.80107     4.53156
    89   2     1.38750     4.00537    -4.53156
    90   2    -2.77500     3.20429     4.53156
    91   2    -4.16250    -0.80107    -4.53156
    92   2    -1.38750    -4.00537     4.53156
    93   2     2.77500    -3.20429    -4.53156
    94   2     4.16250     4.00537     2.26578
    95   2    -1.38750     5.60751    -2.26578
    96   2    -5.55000     1.60215     2.26578
    97   2    -4.16250    -4.00537    -2.26578
    98   2     1.38750    -5.60751     2.26578
    99   2     5.55000    -1.60215    -2.26578
   100   2     2.77500     3.20429     4.53156
   101   2    -1.38750     4.00537    -4.53156
   102   2    -4.16250     0.80107     4.53156
   103   2    -2.77500    -3.20429    -4.53156
   104   2     1.38750    -4.00537     4.53156
   105   2     4.16250    -0.80107    -4.53156
   106   2    11.10000    -0.00000     0.00000
   107   2     5.55000     9.61288     0.00000
   108   2    -5.55000     9.61288     0.00000
   109   2   -11.10000    -0.00000     0.00000
   110   2    -5.55000    -9.61288     0.00000
   111   2     5.55000    -9.61288     0.00000
   112   2     5.55000    -3.20429     9.06311
   113   2     0.00000     6.40859     9.06311
   114   2    -5.55000    -3.20429     9.06311
   115   2     0.00000    -6.40859    -9.06311
   116   2     5.55000     3.20429    -9.06311
   117   2    -5.55000     3.20429    -9.06311
   118   2     9.71250     2.40322     0.00000
   119   2     9.71250    -0.80107     2.26578
   120   2     9.71250     0.80107    -2.26578
   121   2     2.77500     9.61288     0.00000
   122   2     4.16250     8.81181     2.26578
   123   2     5.55000     8.01073    -2.26578
   124   2    -6.93750     7.20966     0.00000
   125   2    -4.16250     8.81181     2.26578
   126   2    -5.55000     8.01073    -2.26578
   127   2    -9.71250    -2.40322     0.00000
   128   2    -9.71250    -0.80107     2.26578
   129   2    -9.71250     0.80107    -2.26578
   130   2    -2.77500    -9.61288     0.00000
   131   2    -5.55000    -8.01073     2.26578
   132   2    -4.16250    -8.81181    -2.26578
   133   2     6.93750    -7.20966     0.00000
   134   2     5.55000    -8.01073     2.26578
   135   2     4.16250    -8.81181    -2.26578
   136   2     4.16250    -0.80107     9.06311
   137   2     2.77500    -3.20429     9.06311
   138   2    -1.38750     4.00537     9.06311
   139   2     1.38750    -4.00537    -9.06311
   140   2    -1.38750    -4.00537    -9.06311
   141   2     2.77500     3.20429    -9.06311
   142   2     8.32500     4.80644     0.00000
   143   2     8.32500    -1.60215     4.53156
   144   2     8.32500     1.60215    -4.53156
   145   2     0.00000     9.61288     0.00000
   146   2     2.77500     8.01073     4.53156
   147   2     5.55000     6.40859    -4.53156
   148   2    -8.32500     4.80644     0.00000
   149   2    -2.77500     8.01073     4.53156
   150   2    -5.55000     6.40859    -4.53156
   151   2    -8.32500    -4.80644     0.00000
   152   2    -8.32500    -1.60215     4.53156
   153   2    -8.32500     1.60215    -4.53156
   154   2     0.00000    -9.61288     0.00000
   155   2    -5.55000    -6.40859     4.53156
   156   2    -2.77500    -8.01073    -4.53156
   157   2     8.32500    -4.80644     0.00000
   158   2     5.55000    -6.40859     4.53156
   159   2     2.77500    -8.01073    -4.53156
   160   2     2.77500     1.60215     9.06311
   161   2     0.00000    -3.20429     9.06311
   162   2    -2.77500     1.60215     9.06311
   163   2     2.77500    -1.60215    -9.06311
   164   2    -2.77500    -1.60215    -9.06311
   165   2     0.00000     3.20429    -9.06311
   166   2     6.93750     7.20966     0.00000
   167   2     6.93750    -2.40322     6.79733
   168   2     6.93750     2.40322    -6.79733
   169   2    -2.77500     9.61288     0.00000
   170   2     1.38750     7.20966     6.79733
   171   2     5.55000     4.80644    -6.79733
   172   2    -9.71250     2.40322     0.00000
   173   2    -1.38750     7.20966     6.79733
   174   2    -5.55000     4.80644    -6.79733
   175   2    -6.93750    -7.20966     0.00000
   176   2    -6.93750    -2.40322     6.79733
   177   2    -6.93750     2.40322    -6.79733
   178   2     2.77500    -9.61288     0.00000
   179   2    -5.55000    -4.80644     6.79733
   180   2    -1.38750    -7.20966    -6.79733
   181   2     9.71250    -2.40322     0.00000
   182   2     5.55000    -4.80644     6.79733
   183   2     1.38750    -7.20966    -6.79733
   184   2     1.38750     4.00537     9.06311
   185   2    -2.77500    -3.20429     9.06311
   186   2    -4.16250    -0.80107     9.06311
   187   2     4.16250     0.80107    -9.06311
   188   2    -4.16250     0.80107    -9.06311
   189   2    -2.77500     3.20429    -9.06311
   190   2     8.32500     3.20429    -2.26578
   191   2     1.38750     8.81181     2.26578
   192   2    -6.93750     5.60751    -2.26578
   193   2    -8.32500    -3.20429     2.26578
   194   2    -1.38750    -8.81181    -2.26578
   195   2     6.93750    -5.60751     2.26578
   196   2     1.38750    -0.80107     9.06311
   197   2     0.00000    -1.60215    -9.06311
   198   2     6.93750     4.00537    -4.53156
   199   2     0.00000     8.01073     4.53156
   200   2    -6.93750     4.00537    -4.53156
   201   2    -6.93750    -4.00537     4.53156
   202   2     0.00000    -8.01073    -4.53156
   203   2     6.93750    -4.00537     4.53156
   204   2    -1.38750    -0.80107     9.06311
   205   2    -1.38750     0.80107    -9.06311
   206   2     8.32500     1.60215     2.26578
   207   2     2.77500     8.01073    -2.26578
   208   2    -5.55000     6.40859     2.26578
   209   2    -8.32500    -1.60215    -2.26578
   210   2    -2.77500    -8.01073     2.26578
   211   2     5.55000    -6.40859    -2.26578
   212   2     6.93750     0.80107     4.53156
   213   2     2.77500     6.40859    -4.53156
   214   2    -4.16250     5.60751     4.53156
   215   2    -6.93750    -0.80107    -4.53156
   216   2    -2.77500    -6.40859     4.53156
   217   2     4.16250    -5.60751    -4.53156
   218   2     5.55000    -0.00000     6.79733
   219   2     2.77500     4.80644    -6.79733
   220   2    -2.77500     4.80644     6.79733
   221   2    -5.55000    -0.00000    -6.79733
   222   2    -2.77500    -4.80644     6.79733
   223   2     2.77500    -4.80644    -6.79733
   224   2     6.93750     5.60751    -2.26578
   225   2    -1.38750     8.81181     2.26578
   226   2    -8.32500     3.20429    -2.26578
   227   2    -6.93750    -5.60751     2.26578
   228   2     1.38750    -8.81181    -2.26578
   229   2     8.32500    -3.20429     2.26578
   230   2     0.00000     1.60215     9.06311
   231   2     1.38750     0.80107    -9.06311
   232   2     6.93750     4.00537     2.26578
   233   2     0.00000     8.01073    -2.26578
   234   2    -6.93750     4.00537     2.26578
   235   2    -6.93750    -4.00537    -2.26578
   236   2     0.00000    -8.01073     2.26578
   237   2     6.93750    -4.00537    -2.26578
   238   2     5.55000     3.20429     4.53156
   239   2     0.00000     6.40859    -4.53156
   240   2    -5.55000     3.20429     4.53156
   241   2    -5.55000    -3.20429    -4.53156
   242   2     0.00000    -6.40859     4.53156
   243   2     5.55000    -3.20429    -4.53156
   244   2     4.16250     2.40322     6.79733
   245   2     0.00000     4.80644    -6.79733
   246   2    -4.16250     2.40322     6.79733
   247   2    -4.16250    -2.40322    -6.79733
   248   2     0.00000    -4.80644     6.79733
   249   2     4.16250    -2.40322    -6.79733
   250   2     5.55000     6.40859     2.26578
   251   2    -2.77500     8.01073    -2.26578
   252   2    -8.32500     1.60215     2.26578
   253   2    -5.55000    -6.40859    -2.26578
   254   2     2.77500    -8.01073     2.26578
   255   2     8.32500    -1.60215    -2.26578
   256   2     4.16250     5.60751     4.53156
   257   2    -2.77500     6.40859    -4.53156
   258   2    -6.93750     0.80107     4.53156
   259   2    -4.16250    -5.60751    -4.53156
   260   2     2.77500    -6.40859     4.53156
   261   2     6.93750    -0.80107    -4.53156
   262   2     2.77500     4.80644     6.79733
   263   2    -2.77500     4.80644    -6.79733
   264   2    -5.55000    -0.00000     6.79733
   265   2    -2.77500    -4.80644    -6.79733
   266   2     2.77500    -4.80644     6.79733
   267   2     5.55000    -0.00000    -6.79733
   268   1    12.45000    -0.00000     0.00000
   269   1     6.22500    10.78202     0.00000
   270   1    -6.22500    10.78202     0.00000
   271   1   -12.45000    -0.00000     0.00000
   272   1    -6.22500   -10.78202     0.00000
   273   1     6.22500   -10.78202     0.00000
   274   1     6.22500    -3.59401    10.16538
   275   1     0.00000     7.18801    10.16538
   276   1    -6.22500    -3.59401    10.16538
   277   1     0.00000    -7.18801   -10.16538
   278   1     6.22500     3.59401   -10.16538
   279   1    -6.22500     3.59401   -10.16538
   280   1    11.20500     2.15640     0.00000
   281   1    11.20500    -0.71880     2.03308
   282   1    11.20500     0.71880    -2.03308
   283   1     3.73500    10.78202     0.00000
   284   1     4.98000    10.06322     2.03308
   285   1     6.22500     9.34441    -2.03308
   286   1    -7.47000     8.62561     0.00000
   287   1    -4.98000    10.06322     2.03308
   288   1    -6.22500     9.34441    -2.03308
   289   1   -11.20500    -2.15640     0.00000
   290   1   -11.20500    -0.71880     2.03308
   291   1   -11.20500     0.71880    -2.03308
   292   1    -3.73500   -10.78202     0.00000
   293   1    -6.22500    -9.34441     2.03308
   294   1    -4.98000   -10.06322    -2.03308
   295   1     7.47000    -8.62561     0.00000
   296   1     6.22500    -9.34441     2.03308
   297   1     4.98000   -10.06322    -2.03308
   298   1     4.98000    -1.43760    10.16538
   299   1     3.73500    -3.59401    10.16538
   300   1    -1.24500     5.03161    10.16538
   301   1     1.24500    -5.03161   -10.16538
   302   1    -1.24500    -5.03161   -10.16538
   303   1     3.73500     3.59401   -10.16538
   304   1     9.96000     4.31281     0.00000
   305   1     9.96000    -1.43760     4.06615
   306   1     9.96000     1.43760    -4.06615
   307   1     1.24500    10.78202     0.00000
   308   1     3.73500     9.34441     4.06615
   309   1     6.22500     7.90681    -4.06615
   310   1    -8.71500     6.46921     0.00000
   311   1    -3.73500     9.34441     4.06615
   312   1    -6.22500     7.90681    -4.06615
   313   1    -9.96000    -4.31281     0.00000
   314   1    -9.96000    -1.43760     4.06615
   315   1    -9.96000     1.43760    -4.06615
   316   1    -1.24500   -10.78202     0.00000
   317   1    -6.22500    -7.90681     4.06615
   318   1    -3.73500    -9.34441    -4.06615
   319   1     8.71500    -6.46921     0.00000
   320   1     6.22500    -7.90681     4.06615
   321   1     3.73500    -9.34441    -4.06615
   322   1     3.73500     0.71880    10.16538
   323   1     1.24500    -3.59401    10.16538
   324   1    -2.49000     2.87520    10.16538
   325   1     2.49000    -2.87520   -10.16538
   326   1    -2.49000    -2.87520   -10.16538
   327   1     1.24500     3.59401   -10.16538
   328   1     8.71500     6.46921     0.00000
   329   1     8.71500    -2.15640     6.09923
   330   1     8.71500     2.15640    -6.09923
   331   1    -1.24500    10.78202     0.00000
   332   1     2.49000     8.62561     6.09923
   333   1     6.22500     6.46921    -6.09923
   334   1    -9.96000     4.31281     0.00000
   335   1    -2.49000     8.62561     6.09923
   336   1    -6.22500     6.46921    -6.09923
   337   1    -8.71500    -6.46921     0.00000
   338   1    -8.71500    -2.15640     6.09923
   339   1    -8.71500     2.15640    -6.09923
   340   1     1.24500   -10.78202     0.00000
   341   1    -6.22500    -6.46921     6.09923
   342   1    -2.49000    -8.62561    -6.09923
   343   1     9.96000    -4.31281     0.00000
   344   1     6.22500    -6.46921     6.09923
   345   1     2.49000    -8.62561    -6.09923
   346   1     2.49000     2.87520    10.16538
   347   1    -1.24500    -3.59401    10.16538
   348   1    -3.73500     0.71880    10.16538
   349   1     3.73500    -0.71880   -10.16538
   350   1    -3.73500    -0.71880   -10.16538
   351   1    -1.24500     3.59401   -10.16538
   352   1     7.47000     8.62561     0.00000
   353   1     7.47000    -2.87520     8.13231
   354   1     7.47000     2.87520    -8.13231
   355   1    -3.73500    10.78202     0.00000
   356   1     1.24500     7.90681     8.13231
   357   1     6.22500     5.03161    -8.13231
   358   1   -11.20500     2.15640     0.00000
   359   1    -1.24500     7.90681     8.13231
   360   1    -6.22500     5.03161    -8.13231
   361   1    -7.47000    -8.62561     0.00000
   362   1    -7.47000    -2.87520     8.13231
   363   1    -7.47000     2.87520    -8.13231
   364   1     3.73500   -10.78202     0.00000
   365   1    -6.22500    -5.03161     8.13231
   366   1    -1.24500    -7.90681    -8.13231
   367   1    11.20500    -2.15640     0.00000
   368   1     6.22500    -5.03161     8.13231
   369   1     1.24500    -7.90681    -8.13231
   370   1     1.24500     5.03161    10.16538
   371   1    -3.73500    -3.59401    10.16538
   372   1    -4.98000    -1.43760    10.16538
   373   1     4.98000     1.43760   -10.16538
   374   1    -4.98000     1.43760   -10.16538
   375   1    -3.73500     3.59401   -10.16538
   376   1     9.96000     2.87520    -2.03308
   377   1     2.49000    10.06322     2.03308
   378   1    -7.47000     7.18801    -2.03308
   379   1    -9.96000    -2.87520     2.03308
   380   1    -2.49000   -10.06322    -2.03308
   381   1     7.47000    -7.18801     2.03308
   382   1     2.49000    -1.43760    10.16538
   383   1     0.00000    -2.87520   -10.16538
   384   1     8.71500     3.59401    -4.06615
   385   1     1.24500     9.34441     4.06615
   386   1    -7.47000     5.75041    -4.06615
   387   1    -8.71500    -3.59401     4.06615
   388   1    -1.24500    -9.34441    -4.06615
   389   1     7.47000    -5.75041     4.06615
   390   1     0.00000    -1.43760    10.16538
   391   1    -1.24500    -0.71880   -10.16538
   392   1     7.47000     4.31281    -6.09923
   393   1     0.00000     8.62561     6.09923
   394   1    -7.47000     4.31281    -6.09923
   395   1    -7.47000    -4.31281     6.09923
   396   1     0.00000    -8.62561    -6.09923
   397   1     7.47000    -4.31281     6.09923
   398   1    -2.49000    -1.43760    10.16538
   399   1    -2.49000     1.43760   -10.16538
   400   1     9.96000     1.43760     2.03308
   401   1     3.73500     9.34441    -2.03308
   402   1    -6.22500     7.90681     2.03308
   403   1    -9.96000    -1.43760    -2.03308
   404   1    -3.73500    -9.34441     2.03308
   405   1     6.22500    -7.90681    -2.03308
   406   1     8.71500     0.71880     4.06615
   407   1     3.73500     7.90681    -4.06615
   408   1    -4.98000     7.18801     4.06615
   409   1    -8.71500    -0.71880    -4.06615
   410   1    -3.73500    -7.90681     4.06615
   411   1     4.98000    -7.18801    -4.06615
   412   1     7.47000    -0.00000     6.09923
   413   1     3.73500     6.46921    -6.09923
   414   1    -3.73500     6.46921     6.09923
   415   1    -7.47000    -0.00000    -6.09923
   416   1    -3.73500    -6.46921     6.09923
   417   1     3.73500    -6.46921    -6.09923
   418   1     6.22500    -0.71880     8.13231
   419   1     3.73500     5.03161    -8.13231
   420   1    -2.49000     5.75041     8.13231
   421   1    -6.22500     0.71880    -8.13231
   422   1    -3.73500    -5.03161     8.13231
   423   1     2.49000    -5.75041    -8.13231
   424   1     8.71500     5.03161    -2.03308
   425   1     0.00000    10.06322     2.03308
   426   1    -8.71500     5.03161    -2.03308
   427   1    -8.71500    -5.03161     2.03308
   428   1     0.00000   -10.06322    -2.03308
   429   1     8.71500    -5.03161     2.03308
   430   1     1.24500     0.71880    10.16538
   431   1     1.24500    -0.71880   -10.16538
   432   1     7.47000     5.75041    -4.06615
   433   1    -1.24500     9.34441     4.06615
   434   1    -8.71500     3.59401    -4.06615
   435   1    -7.47000    -5.75041     4.06615
   436   1     1.24500    -9.34441    -4.06615
   437   1     8.71500    -3.59401     4.06615
   438   1    -1.24500     0.71880    10.16538
   439   1     0.00000     1.43760   -10.16538
   440   1     8.71500     3.59401     2.03308
   441   1     1.24500     9.34441    -2.03308
   442   1    -7.47000     5.75041     2.03308
   443   1    -8.71500    -3.59401    -2.03308
   444   1    -1.24500    -9.34441     2.03308
   445   1     7.47000    -5.75041    -2.03308
   446   1     7.47000     2.87520     4.06615
   447   1     1.24500     7.90681    -4.06615
   448   1    -6.22500     5.03161     4.06615
   449   1    -7.47000    -2.87520    -4.06615
   450   1    -1.24500    -7.90681     4.06615
   451   1     6.22500    -5.03161    -4.06615
   452   1     6.22500     2.15640     6.09923
   453   1     1.24500     6.46921    -6.09923
   454   1    -4.98000     4.31281     6.09923
   455   1    -6.22500    -2.15640    -6.09923
   456   1    -1.24500    -6.46921     6.09923
   457   1     4.98000    -4.31281    -6.09923
   458   1     4.98000     1.43760     8.13231
   459   1     1.24500     5.03161    -8.13231
   460   1    -3.73500     3.59401     8.13231
   461   1    -4.98000    -1.43760    -8.13231
   462   1    -1.24500    -5.03161     8.13231
   463   1     3.73500    -3.59401    -8.13231
   464   1     7.47000     7.18801    -2.03308
   465   1    -2.49000    10.06322     2.03308
   466   1    -9.96000     2.87520    -2.03308
   467   1    -7.47000    -7.18801     2.03308
   468   1     2.49000   -10.06322    -2.03308
   469   1     9.96000    -2.87520     2.03308
   470   1     0.00000     2.87520    10.16538
   471   1     2.49000     1.43760   -10.16538
   472   1     7.47000     5.75041     2.03308
   473   1    -1.24500     9.34441    -2.03308
   474   1    -8.71500     3.59401     2.03308
   475   1    -7.47000    -5.75041    -2.03308
   476   1     1.24500    -9.34441     2.03308
   477   1     8.71500    -3.59401    -2.03308
   478   1     6.22500     5.03161     4.06615
   479   1    -1.24500     7.90681    -4.06615
   480   1    -7.47000     2.87520     4.06615
   481   1    -6.22500    -5.03161    -4.06615
   482   1     1.24500    -7.90681     4.06615
   483   1     7.47000    -2.87520    -4.06615
   484   1     4.98000     4.31281     6.09923
   485   1    -1.24500     6.46921    -6.09923
   486   1    -6.22500     2.15640     6.09923
   487   1    -4.98000    -4.31281    -6.09923
   488   1     1.24500    -6.46921     6.09923
   489   1     6.22500    -2.15640    -6.09923
   490   1     3.73500     3.59401     8.13231
   491   1    -1.24500     5.03161    -8.13231
   492   1    -4.98000     1.43760     8.13231
   493   1    -3.73500    -3.59401    -8.13231
   494   1     1.24500    -5.03161     8.13231
   495   1     4.98000    -1.43760    -8.13231
   496   1     6.22500     7.90681     2.03308
   497   1    -3.73500     9.34441    -2.03308
   498   1    -9.96000     1.43760     2.03308
   499   1    -6.22500    -7.90681    -2.03308
   500   1     3.73500    -9.34441     2.03308
   501   1     9.96000    -1.43760    -2.03308
   502   1     4.98000     7.18801     4.06615
   503   1    -3.73500     7.90681    -4.06615
   504   1    -8.71500     0.71880     4.06615
   505   1    -4.98000    -7.18801    -4.06615
   506   1     3.73500    -7.90681     4.06615
   507   1     8.71500    -0.71880    -4.06615
   508   1     3.73500     6.46921     6.09923
   509   1    -3.73500     6.46921    -6.09923
   510   1    -7.47000    -0.00000     6.09923
   511   1    -3.73500    -6.46921    -6.09923
   512   1     3.73500    -6.46921     6.09923
   513   1     7.47000    -0.00000    -6.09923
   514   1     2.49000     5.75041     8.13231
   515   1    -3.73500     5.03161    -8.13231
   516   1    -6.22500    -0.71880     8.13231
   517   1    -2.49000    -5.75041    -8.13231
   518   1     3.73500    -5.03161     8.13231
   519   1     6.22500     0.71880    -8.13231
   520   1    14.94000     0.00000     0.00000
   521   1     7.47000    12.93842     0.00000
   522   1    -7.47000    12.93842     0.00000
   523   1   -14.94000     0.00000     0.00000
   524   1    -7.47000   -12.93842     0.00000
   525   1     7.47000   -12.93842     0.00000
   526   1     7.47000    -4.31281    12.19846
   527   1     0.00000     8.62561    12.19846
   528   1    -7.47000    -4.31281    12.19846
   529   1     0.00000    -8.62561   -12.19846
   530   1     7.47000     4.31281   -12.19846
   531   1    -7.47000     4.31281   -12.19846
   532   1    13.69500     2.15640     0.00000
   533   1    13.69500    -0.71880     2.03308
   534   1    13.69500     0.71880    -2.03308
   535   1     4.98000    12.93842     0.00000
   536   1     6.22500    12.21962     2.03308
   537   1     7.47000    11.50082    -2.03308
   538   1    -8.71500    10.78202     0.00000
   539   1    -6.22500    12.21962     2.03308
   540   1    -7.47000    11.50082    -2.03308
   541   1   -13.69500    -2.15640     0.00000
   542   1   -13.69500    -0.71880     2.03308
   543   1   -13.69500     0.71880    -2.03308
   544   1    -4.98000   -12.93842     0.00000
   545   1    -7.47000   -11.50082     2.03308
   546   1    -6.22500   -12.21962    -2.03308
   547   1     8.71500   -10.78202     0.00000
   548   1     7.47000   -11.50082     2.03308
   549   1     6.22500   -12.21962    -2.03308
   550   1     6.22500    -2.15640    12.19846
   551   1     4.98000    -4.31281    12.19846
   552   1    -1.24500     6.46921    12.19846
   553   1     1.24500    -6.46921   -12.19846
   554   1    -1.24500    -6.46921   -12.19846
   555   1     4.98000     4.31281   -12.19846
   556   1    12.45000     4.31281     0.00000
   557   1    12.45000    -1.43760     4.06615
   558   1    12.45000     1.43760    -4.06615
   559   1     2.49000    12.93842     0.00000
   560   1     4.98000    11.50082     4.06615
   561   1     7.47000    10.06322    -4.06615
   562   1    -9.96000     8.62561     0.00000
   563   1    -4.98000    11.50082     4.06615
   564   1    -7.47000    10.06322    -4.06615
   565   1   -12.45000    -4.31281     0.00000
   566   1   -12.45000    -1.43760     4.06615
   567   1   -12.45000     1.43760    -4.06615
   568   1    -2.49000   -12.93842     0.00000
   569   1    -7.47000   -10.06322     4.06615
   570   1    -4.98000   -11.50082    -4.06615
   571   1     9.96000    -8.62561     0.00000
   572   1     7.47000   -10.06322     4.06615
   573   1     4.98000   -11.50082    -4.06615
   574   1     4.98000     0.00000    12.19846
   575   1     2.49000    -4.31281    12.19846
   576   1    -2.49000     4.31281    12.19846
   577   1     2.49000    -4.31281   -12.19846
   578   1    -2.49000    -4.31281   -12.19846
   579   1     2.49000     4.31281   -12.19846
   580   1    11.20500     6.46921     0.00000
   581   1    11.20500    -2.15640     6.09923
   582   1    11.20500     2.15640    -6.09923
   583   1     0.00000    12.93842     0.00000
   584   1     3.73500    10.78202     6.09923
   585   1     7.47000     8.62561    -6.09923
   586   1   -11.20500     6.46921     0.00000
   587   1    -3.73500    10.78202     6.09923
   588   1    -7.47000     8.62561    -6.09923
   589   1   -11.20500    -6.46921     0.00000
   590   1   -11.20500    -2.15640     6.09923
   591   1   -11.20500     2.15640    -6.09923
   592   1     0.00000   -12.93842     0.00000
   593   1    -7.47000    -8.62561     6.09923
   594   1    -3.73500   -10.78202    -6.09923
   595   1    11.20500    -6.46921     0.00000
   596   1     7.47000    -8.62561     6.09923
   597   1     3.73500   -10.78202    -6.09923
   598   1     3.73500     2.15640    12.19846
   599   1     0.00000    -4.31281    12.19846
   600   1    -3.73500     2.15640    12.19846
   601   1     3.73500    -2.15640   -12.19846
   602   1    -3.73500    -2.15640   -12.19846
   603   1     0.00000     4.31281   -12.19846
   604   1     9.96000     8.62561     0.00000
   605   1     9.96000    -2.87520     8.13231
   606   1     9.96000     2.87520    -8.13231
   607   1    -2.49000    12.93842     0.00000
   608   1     2.49000    10.06322     8.13231
   609   1     7.47000     7.18801    -8.13231
   610   1   -12.45000     4.31281     0.00000
   611   1    -2.49000    10.06322     8.13231
   612   1    -7.47000     7.18801    -8.13231
   613   1    -9.96000    -8.62561     0.00000
   614   1    -9.96000    -2.87520     8.13231
   615   1    -9.96000     2.87520    -8.13231
   616   1     2.49000   -12.93842     0.00000
   617   1    -7.47000    -7.18801     8.13231
   618   1    -2.49000   -10.06322    -8.13231
   619   1    12.45000    -4.31281     0.00000
   620   1     7.47000    -7.18801     8.13231
   621   1     2.49000   -10.06322    -8.13231
   622   1     2.49000     4.31281    12.19846
   623   1    -2.49000    -4.31281    12.19846
   624   1    -4.98000     0.00000    12.19846
   625   1     4.98000     0.00000   -12.19846
   626   1    -4.98000     0.00000   -12.19846
   627   1    -2.49000     4.31281   -12.19846
   628   1     8.71500    10.78202     0.00000
   629   1     8.71500    -3.59401    10.16538
   630   1     8.71500     3.59401   -10.16538
   631   1    -4.98000    12.93842     0.00000
   632   1     1.24500     9.34441    10.16538
   633   1     7.47000     5.75041   -10.16538
   634   1   -13.69500     2.15640     0.00000