881
 Atoms. Timestep: 0
2 0 -0 0
2 2.775 -0 0
2 1.3875 2.40322 0
2 -1.3875 2.40322 0
2 -2.775 -0 0
2 -1.3875 -2.40322 0
2 1.3875 -2.40322 0
2 1.3875 -0.80107 2.26578
2 0 1.60215 2.26578
2 -1.3875 -0.80107 2.26578
2 0 -1.60215 -2.26578
2 1.3875 0.80107 -2.26578
2 -1.3875 0.80107 -2.26578
2 8.325 -0 0
2 4.1625 7.20966 0
2 -4.1625 7.20966 0
2 -8.325 -0 0
2 -4.1625 -7.20966 0
2 4.1625 -7.20966 0
2 4.1625 -2.40322 6.79733
2 0 4.80644 6.79733
2 -4.1625 -2.40322 6.79733
2 0 -4.80644 -6.79733
2 4.1625 2.40322 -6.79733
2 -4.1625 2.40322 -6.79733
2 6.9375 2.40322 0
2 6.9375 -0.80107 2.26578
2 6.9375 0.80107 -2.26578
2 1.3875 7.20966 0
2 2.775 6.40859 2.26578
2 4.1625 5.60751 -2.26578
2 -5.55 4.80644 0
2 -2.775 6.40859 2.26578
2 -4.1625 5.60751 -2.26578
2 -6.9375 -2.40322 0
2 -6.9375 -0.80107 2.26578
2 -6.9375 0.80107 -2.26578
2 -1.3875 -7.20966 0
2 -4.1625 -5.60751 2.26578
2 -2.775 -6.40859 -2.26578
2 5.55 -4.80644 0
2 4.1625 -5.60751 2.26578
2 2.775 -6.40859 -2.26578
2 2.775 -0 6.79733
2 1.3875 -2.40322 6.79733
2 -1.3875 2.40322 6.79733
2 1.3875 -2.40322 -6.79733
2 -1.3875 -2.40322 -6.79733
2 1.3875 2.40322 -6.79733
2 5.55 4.80644 0
2 5.55 -1.60215 4.53156
2 5.55 1.60215 -4.53156
2 -1.3875 7.20966 0
2 1.3875 5.60751 4.53156
2 4.1625 4.00537 -4.53156
2 -6.9375 2.40322 0
2 -1.3875 5.60751 4.53156
2 -4.1625 4.00537 -4.53156
2 -5.55 -4.80644 0
2 -5.55 -1.60215 4.53156
2 -5.55 1.60215 -4.53156
2 1.3875 -7.20966 0
2 -4.1625 -4.00537 4.53156
2 -1.3875 -5.60751 -4.53156
2 6.9375 -2.40322 0
2 4.1625 -4.00537 4.53156
2 1.3875 -5.60751 -4.53156
2 1.3875 2.40322 6.79733
2 -1.3875 -2.40322 6.79733
2 -2.775 -0 6.79733
2 2.775 -0 -6.79733
2 -2.775 -0 -6.79733
2 -1.3875 2.40322 -6.79733
2 5.55 3.20429 -2.26578
2 0 6.40859 2.26578
2 -5.55 3.20429 -2.26578
2 -5.55 -3.20429 2.26578
2 0 -6.40859 -2.26578
2 5.55 -3.20429 2.26578
2 0 -0 6.79733
2 0 -0 -6.79733
2 5.55 1.60215 2.26578
2 1.3875 5.60751 -2.26578
2 -4.1625 4.00537 2.26578
2 -5.55 -1.60215 -2.26578
2 -1.3875 -5.60751 2.26578
2 4.1625 -4.00537 -2.26578
2 4.1625 0.80107 4.53156
2 1.3875 4.00537 -4.53156
2 -2.775 3.20429 4.53156
2 -4.1625 -0.80107 -4.53156
2 -1.3875 -4.00537 4.53156
2 2.775 -3.20429 -4.53156
2 4.1625 4.00537 2.26578
2 -1.3875 5.60751 -2.26578
2 -5.55 1.60215 2.26578
2 -4.1625 -4.00537 -2.26578
2 1.3875 -5.60751 2.26578
2 5.55 -1.60215 -2.26578
2 2.775 3.20429 4.53156
2 -1.3875 4.00537 -4.53156
2 -4.1625 0.80107 4.53156
2 -2.775 -3.20429 -4.53156
2 1.3875 -4.00537 4.53156
2 4.1625 -0.80107 -4.53156
2 11.1 -0 0
2 5.55 9.61288 0
2 -5.55 9.61288 0
2 -11.1 -0 0
2 -5.55 -9.61288 0
2 5.55 -9.61288 0
2 5.55 -3.20429 9.06311
2 0 6.40859 9.06311
2 -5.55 -3.20429 9.06311
2 0 -6.40859 -9.06311
2 5.55 3.20429 -9.06311
2 -5.55 3.20429 -9.06311
2 9.7125 2.40322 0
2 9.7125 -0.80107 2.26578
2 9.7125 0.80107 -2.26578
2 2.775 9.61288 0
2 4.1625 8.81181 2.26578
2 5.55 8.01073 -2.26578
2 -6.9375 7.20966 0
2 -4.1625 8.81181 2.26578
2 -5.55 8.01073 -2.26578
2 -9.7125 -2.40322 0
2 -9.7125 -0.80107 2.26578
2 -9.7125 0.80107 -2.26578
2 -2.775 -9.61288 0
2 -5.55 -8.01073 2.26578
2 -4.1625 -8.81181 -2.26578
2 6.9375 -7.20966 0
2 5.55 -8.01073 2.26578
2 4.1625 -8.81181 -2.26578
2 4.1625 -0.80107 9.06311
2 2.775 -3.20429 9.06311
2 -1.3875 4.00537 9.06311
2 1.3875 -4.00537 -9.06311
2 -1.3875 -4.00537 -9.06311
2 2.775 3.20429 -9.06311
2 8.325 4.80644 0
2 8.325 -1.60215 4.53156
2 8.325 1.60215 -4.53156
2 0 9.61288 0
2 2.775 8.01073 4.53156
2 5.55 6.40859 -4.53156
2 -8.325 4.80644 0
2 -2.775 8.01073 4.53156
2 -5.55 6.40859 -4.53156
2 -8.325 -4.80644 0
2 -8.325 -1.60215 4.53156
2 -8.325 1.60215 -4.53156
2 0 -9.61288 0
2 -5.55 -6.40859 4.53156
2 -2.775 -8.01073 -4.53156
2 8.325 -4.80644 0
2 5.55 -6.40859 4.53156
2 2.775 -8.01073 -4.53156
2 2.775 1.60215 9.06311
2 0 -3.20429 9.06311
2 -2.775 1.60215 9.06311
2 2.775 -1.60215 -9.06311
2 -2.775 -1.60215 -9.06311
2 0 3.20429 -9.06311
2 6.9375 7.20966 0
2 6.9375 -2.40322 6.79733
2 6.9375 2.40322 -6.79733
2 -2.775 9.61288 0
2 1.3875 7.20966 6.79733
2 5.55 4.80644 -6.79733
2 -9.7125 2.40322 0
2 -1.3875 7.20966 6.79733
2 -5.55 4.80644 -6.79733
2 -6.9375 -7.20966 0
2 -6.9375 -2.40322 6.79733
2 -6.9375 2.40322 -6.79733
2 2.775 -9.61288 0
2 -5.55 -4.80644 6.79733
2 -1.3875 -7.20966 -6.79733
2 9.7125 -2.40322 0
2 5.55 -4.80644 6.79733
2 1.3875 -7.20966 -6.79733
2 1.3875 4.00537 9.06311
2 -2.775 -3.20429 9.06311
2 -4.1625 -0.80107 9.06311
2 4.1625 0.80107 -9.06311
2 -4.1625 0.80107 -9.06311
2 -2.775 3.20429 -9.06311
2 8.325 3.20429 -2.26578
2 1.3875 8.81181 2.26578
2 -6.9375 5.60751 -2.26578
2 -8.325 -3.20429 2.26578
2 -1.3875 -8.81181 -2.26578
2 6.9375 -5.60751 2.26578
2 1.3875 -0.80107 9.06311
2 0 -1.60215 -9.06311
2 6.9375 4.00537 -4.53156
2 0 8.01073 4.53156
2 -6.9375 4.00537 -4.53156
2 -6.9375 -4.00537 4.53156
2 0 -8.01073 -4.53156
2 6.9375 -4.00537 4.53156
2 -1.3875 -0.80107 9.06311
2 -1.3875 0.80107 -9.06311
2 8.325 1.60215 2.26578
2 2.775 8.01073 -2.26578
2 -5.55 6.40859 2.26578
2 -8.325 -1.60215 -2.26578
2 -2.775 -8.01073 2.26578
2 5.55 -6.40859 -2.26578
2 6.9375 0.80107 4.53156
2 2.775 6.40859 -4.53156
2 -4.1625 5.60751 4.53156
2 -6.9375 -0.80107 -4.53156
2 -2.775 -6.40859 4.53156
2 4.1625 -5.60751 -4.53156
2 5.55 -0 6.79733
2 2.775 4.80644 -6.79733
2 -2.775 4.80644 6.79733
2 -5.55 -0 -6.79733
2 -2.775 -4.80644 6.79733
2 2.775 -4.80644 -6.79733
2 6.9375 5.60751 -2.26578
2 -1.3875 8.81181 2.26578
2 -8.325 3.20429 -2.26578
2 -6.9375 -5.60751 2.26578
2 1.3875 -8.81181 -2.26578
2 8.325 -3.20429 2.26578
2 0 1.60215 9.06311
2 1.3875 0.80107 -9.06311
2 6.9375 4.00537 2.26578
2 0 8.01073 -2.26578
2 -6.9375 4.00537 2.26578
2 -6.9375 -4.00537 -2.26578
2 0 -8.01073 2.26578
2 6.9375 -4.00537 -2.26578
2 5.55 3.20429 4.53156
2 0 6.40859 -4.53156
2 -5.55 3.20429 4.53156
2 -5.55 -3.20429 -4.53156
2 0 -6.40859 4.53156
2 5.55 -3.20429 -4.53156
2 4.1625 2.40322 6.79733
2 0 4.80644 -6.79733
2 -4.1625 2.40322 6.79733
2 -4.1625 -2.40322 -6.79733
2 0 -4.80644 6.79733
2 4.1625 -2.40322 -6.79733
2 5.55 6.40859 2.26578
2 -2.775 8.01073 -2.26578
2 -8.325 1.60215 2.26578
2 -5.55 -6.40859 -2.26578
2 2.775 -8.01073 2.26578
2 8.325 -1.60215 -2.26578
2 4.1625 5.60751 4.53156
2 -2.775 6.40859 -4.53156
2 -6.9375 0.80107 4.53156
2 -4.1625 -5.60751 -4.53156
2 2.775 -6.40859 4.53156
2 6.9375 -0.80107 -4.53156
2 2.775 4.80644 6.79733
2 -2.775 4.80644 -6.79733
2 -5.55 -0 6.79733
2 -2.775 -4.80644 -6.79733
2 2.775 -4.80644 6.79733
2 5.55 -0 -6.79733
1 12.45 -0 0
1 6.225 10.782 0
1 -6.225 10.782 0
1 -12.45 -0 0
1 -6.225 -10.782 0
1 6.225 -10.782 0
1 6.225 -3.59401 10.1654
1 0 7.18801 10.1654
1 -6.225 -3.59401 10.1654
1 0 -7.18801 -10.1654
1 6.225 3.59401 -10.1654
1 -6.225 3.59401 -10.1654
1 11.205 2.1564 0
1 11.205 -0.7188 2.03308
1 11.205 0.7188 -2.03308
1 3.735 10.782 0
1 4.98 10.0632 2.03308
1 6.225 9.34441 -2.03308
1 -7.47 8.62561 0
1 -4.98 10.0632 2.03308
1 -6.225 9.34441 -2.03308
1 -11.205 -2.1564 0
1 -11.205 -0.7188 2.03308
1 -11.205 0.7188 -2.03308
1 -3.735 -10.782 0
1 -6.225 -9.34441 2.03308
1 -4.98 -10.0632 -2.03308
1 7.47 -8.62561 0
1 6.225 -9.34441 2.03308
1 4.98 -10.0632 -2.03308
1 4.98 -1.4376 10.1654
1 3.735 -3.59401 10.1654
1 -1.245 5.03161 10.1654
1 1.245 -5.03161 -10.1654
1 -1.245 -5.03161 -10.1654
1 3.735 3.59401 -10.1654
1 9.96 4.31281 0
1 9.96 -1.4376 4.06615
1 9.96 1.4376 -4.06615
1 1.245 10.782 0
1 3.735 9.34441 4.06615
1 6.225 7.90681 -4.06615
1 -8.715 6.46921 0
1 -3.735 9.34441 4.06615
1 -6.225 7.90681 -4.06615
1 -9.96 -4.31281 0
1 -9.96 -1.4376 4.06615
1 -9.96 1.4376 -4.06615
1 -1.245 -10.782 0
1 -6.225 -7.90681 4.06615
1 -3.735 -9.34441 -4.06615
1 8.715 -6.46921 0
1 6.225 -7.90681 4.06615
1 3.735 -9.34441 -4.06615
1 3.735 0.7188 10.1654
1 1.245 -3.59401 10.1654
1 -2.49 2.8752 10.1654
1 2.49 -2.8752 -10.1654
1 -2.49 -2.8752 -10.1654
1 1.245 3.59401 -10.1654
1 8.715 6.46921 0
1 8.715 -2.1564 6.09923
1 8.715 2.1564 -6.09923
1 -1.245 10.782 0
1 2.49 8.62561 6.09923
1 6.225 6.46921 -6.09923
1 -9.96 4.31281 0
1 -2.49 8.62561 6.09923
1 -6.225 6.46921 -6.09923
1 -8.715 -6.46921 0
1 -8.715 -2.1564 6.09923
1 -8.715 2.1564 -6.09923
1 1.245 -10.782 0
1 -6.225 -6.46921 6.09923
1 -2.49 -8.62561 -6.09923
1 9.96 -4.31281 0
1 6.225 -6.46921 6.09923
1 2.49 -8.62561 -6.09923
1 2.49 2.8752 10.1654
1 -1.245 -3.59401 10.1654
1 -3.735 0.7188 10.1654
1 3.735 -0.7188 -10.1654
1 -3.735 -0.7188 -10.1654
1 -1.245 3.59401 -10.1654
1 7.47 8.62561 0
1 7.47 -2.8752 8.13231
1 7.47 2.8752 -8.13231
1 -3.735 10.782 0
1 1.245 7.90681 8.13231
1 6.225 5.03161 -8.13231
1 -11.205 2.1564 0
1 -1.245 7.90681 8.13231
1 -6.225 5.03161 -8.13231
1 -7.47 -8.62561 0
1 -7.47 -2.8752 8.13231
1 -7.47 2.8752 -8.13231
1 3.735 -10.782 0
1 -6.225 -5.03161 8.13231
1 -1.245 -7.90681 -8.13231
1 11.205 -2.1564 0
1 6.225 -5.03161 8.13231
1 1.245 -7.90681 -8.13231
1 1.245 5.03161 10.1654
1 -3.735 -3.59401 10.1654
1 -4.98 -1.4376 10.1654
1 4.98 1.4376 -10.1654
1 -4.98 1.4376 -10.1654
1 -3.735 3.59401 -10.1654
1 9.96 2.8752 -2.03308
1 2.49 10.0632 2.03308
1 -7.47 7.18801 -2.03308
1 -9.96 -2.8752 2.03308
1 -2.49 -10.0632 -2.03308
1 7.47 -7.18801 2.03308
1 2.49 -1.4376 10.1654
1 0 -2.8752 -10.1654
1 8.715 3.59401 -4.06615
1 1.245 9.34441 4.06615
1 -7.47 5.75041 -4.06615
1 -8.715 -3.59401 4.06615
1 -1.245 -9.34441 -4.06615
1 7.47 -5.75041 4.06615
1 0 -1.4376 10.1654
1 -1.245 -0.7188 -10.1654
1 7.47 4.31281 -6.09923
1 0 8.62561 6.09923
1 -7.47 4.31281 -6.09923
1 -7.47 -4.31281 6.09923
1 0 -8.62561 -6.09923
1 7.47 -4.31281 6.09923
1 -2.49 -1.4376 10.1654
1 -2.49 1.4376 -10.1654
1 9.96 1.4376 2.03308
1 3.735 9.34441 -2.03308
1 -6.225 7.90681 2.03308
1 -9.96 -1.4376 -2.03308
1 -3.735 -9.34441 2.03308
1 6.225 -7.90681 -2.03308
1 8.715 0.7188 4.06615
1 3.735 7.90681 -4.06615
1 -4.98 7.18801 4.06615
1 -8.715 -0.7188 -4.06615
1 -3.735 -7.90681 4.06615
1 4.98 -7.18801 -4.06615
1 7.47 -0 6.09923
1 3.735 6.46921 -6.09923
1 -3.735 6.46921 6.09923
1 -7.47 -0 -6.09923
1 -3.735 -6.46921 6.09923
1 3.735 -6.46921 -6.09923
1 6.225 -0.7188 8.13231
1 3.735 5.03161 -8.13231
1 -2.49 5.75041 8.13231
1 -6.225 0.7188 -8.13231
1 -3.735 -5.03161 8.13231
1 2.49 -5.75041 -8.13231
1 8.715 5.03161 -2.03308
1 0 10.0632 2.03308
1 -8.715 5.03161 -2.03308
1 -8.715 -5.03161 2.03308
1 0 -10.0632 -2.03308
1 8.715 -5.03161 2.03308
1 1.245 0.7188 10.1654
1 1.245 -0.7188 -10.1654
1 7.47 5.75041 -4.06615
1 -1.245 9.34441 4.06615
1 -8.715 3.59401 -4.06615
1 -7.47 -5.75041 4.06615
1 1.245 -9.34441 -4.06615
1 8.715 -3.59401 4.06615
1 -1.245 0.7188 10.1654
1 0 1.4376 -10.1654
1 8.715 3.59401 2.03308
1 1.245 9.34441 -2.03308
1 -7.47 5.75041 2.03308
1 -8.715 -3.59401 -2.03308
1 -1.245 -9.34441 2.03308
1 7.47 -5.75041 -2.03308
1 7.47 2.8752 4.06615
1 1.245 7.90681 -4.06615
1 -6.225 5.03161 4.06615
1 -7.47 -2.8752 -4.06615
1 -1.245 -7.90681 4.06615
1 6.225 -5.03161 -4.06615
1 6.225 2.1564 6.09923
1 1.245 6.46921 -6.09923
1 -4.98 4.31281 6.09923
1 -6.225 -2.1564 -6.09923
1 -1.245 -6.46921 6.09923
1 4.98 -4.31281 -6.09923
1 4.98 1.4376 8.13231
1 1.245 5.03161 -8.13231
1 -3.735 3.59401 8.13231
1 -4.98 -1.4376 -8.13231
1 -1.245 -5.03161 8.13231
1 3.735 -3.59401 -8.13231
1 7.47 7.18801 -2.03308
1 -2.49 10.0632 2.03308
1 -9.96 2.8752 -2.03308
1 -7.47 -7.18801 2.03308
1 2.49 -10.0632 -2.03308
1 9.96 -2.8752 2.03308
1 0 2.8752 10.1654
1 2.49 1.4376 -10.1654
1 7.47 5.75041 2.03308
1 -1.245 9.34441 -2.03308
1 -8.715 3.59401 2.03308
1 -7.47 -5.75041 -2.03308
1 1.245 -9.34441 2.03308
1 8.715 -3.59401 -2.03308
1 6.225 5.03161 4.06615
1 -1.245 7.90681 -4.06615
1 -7.47 2.8752 4.06615
1 -6.225 -5.03161 -4.06615
1 1.245 -7.90681 4.06615
1 7.47 -2.8752 -4.06615
1 4.98 4.31281 6.09923
1 -1.245 6.46921 -6.09923
1 -6.225 2.1564 6.09923
1 -4.98 -4.31281 -6.09923
1 1.245 -6.46921 6.09923
1 6.225 -2.1564 -6.09923
1 3.735 3.59401 8.13231
1 -1.245 5.03161 -8.13231
1 -4.98 1.4376 8.13231
1 -3.735 -3.59401 -8.13231
1 1.245 -5.03161 8.13231
1 4.98 -1.4376 -8.13231
1 6.225 7.90681 2.03308
1 -3.735 9.34441 -2.03308
1 -9.96 1.4376 2.03308
1 -6.225 -7.90681 -2.03308
1 3.735 -9.34441 2.03308
1 9.96 -1.4376 -2.03308
1 4.98 7.18801 4.06615
1 -3.735 7.90681 -4.06615
1 -8.715 0.7188 4.06615
1 -4.98 -7.18801 -4.06615
1 3.735 -7.90681 4.06615
1 8.715 -0.7188 -4.06615
1 3.735 6.46921 6.09923
1 -3.735 6.46921 -6.09923
1 -7.47 -0 6.09923
1 -3.735 -6.46921 -6.09923
1 3.735 -6.46921 6.09923
1 7.47 -0 -6.09923
1 2.49 5.75041 8.13231
1 -3.735 5.03161 -8.13231
1 -6.225 -0.7188 8.13231
1 -2.49 -5.75041 -8.13231
1 3.735 -5.03161 8.13231
1 6.225 0.7188 -8.13231
1 14.94 0 0
1 7.47 12.9384 0
1 -7.47 12.9384 0
1 -14.94 0 0
1 -7.47 -12.9384 0
1 7.47 -12.9384 0
1 7.47 -4.31281 12.1985
1 0 8.62561 12.1985
1 -7.47 -4.31281 12.1985
1 0 -8.62561 -12.1985
1 7.47 4.31281 -12.1985
1 -7.47 4.31281 -12.1985
1 13.695 2.1564 0
1 13.695 -0.7188 2.03308
1 13.695 0.7188 -2.03308
1 4.98 12.9384 0
1 6.225 12.2196 2.03308
1 7.47 11.5008 -2.03308
1 -8.715 10.782 0
1 -6.225 12.2196 2.03308
1 -7.47 11.5008 -2.03308
1 -13.695 -2.1564 0
1 -13.695 -0.7188 2.03308
1 -13.695 0.7188 -2.03308
1 -4.98 -12.9384 0
1 -7.47 -11.5008 2.03308
1 -6.225 -12.2196 -2.03308
1 8.715 -10.782 0
1 7.47 -11.5008 2.03308
1 6.225 -12.2196 -2.03308
1 6.225 -2.1564 12.1985
1 4.98 -4.31281 12.1985
1 -1.245 6.46921 12.1985
1 1.245 -6.46921 -12.1985
1 -1.245 -6.46921 -12.1985
1 4.98 4.31281 -12.1985
1 12.45 4.31281 0
1 12.45 -1.4376 4.06615
1 12.45 1.4376 -4.06615
1 2.49 12.9384 0
1 4.98 11.5008 4.06615
1 7.47 10.0632 -4.06615
1 -9.96 8.62561 0
1 -4.98 11.5008 4.06615
1 -7.47 10.0632 -4.06615
1 -12.45 -4.31281 0
1 -12.45 -1.4376 4.06615
1 -12.45 1.4376 -4.06615
1 -2.49 -12.9384 0
1 -7.47 -10.0632 4.06615
1 -4.98 -11.5008 -4.06615
1 9.96 -8.62561 0
1 7.47 -10.0632 4.06615
1 4.98 -11.5008 -4.06615
1 4.98 0 12.1985
1 2.49 -4.31281 12.1985
1 -2.49 4.31281 12.1985
1 2.49 -4.31281 -12.1985
1 -2.49 -4.31281 -12.1985
1 2.49 4.31281 -12.1985
1 11.205 6.46921 0
1 11.205 -2.1564 6.09923
1 11.205 2.1564 -6.09923
1 0 12.9384 0
1 3.735 10.782 6.09923
1 7.47 8.62561 -6.09923
1 -11.205 6.46921 0
1 -3.735 10.782 6.09923
1 -7.47 8.62561 -6.09923
1 -11.205 -6.46921 0
1 -11.205 -2.1564 6.09923
1 -11.205 2.1564 -6.09923
1 0 -12.9384 0
1 -7.47 -8.62561 6.09923
1 -3.735 -10.782 -6.09923
1 11.205 -6.46921 0
1 7.47 -8.62561 6.09923
1 3.735 -10.782 -6.09923
1 3.735 2.1564 12.1985
1 0 -4.31281 12.1985
1 -3.735 2.1564 12.1985
1 3.735 -2.1564 -12.1985
1 -3.735 -2.1564 -12.1985
1 0 4.31281 -12.1985
1 9.96 8.62561 0
1 9.96 -2.8752 8.13231
1 9.96 2.8752 -8.13231
1 -2.49 12.9384 0
1 2.49 10.0632 8.13231
1 7.47 7.18801 -8.13231
1 -12.45 4.31281 0
1 -2.49 10.0632 8.13231
1 -7.47 7.18801 -8.13231
1 -9.96 -8.62561 0
1 -9.96 -2.8752 8.13231
1 -9.96 2.8752 -8.13231
1 2.49 -12.9384 0
1 -7.47 -7.18801 8.13231
1 -2.49 -10.0632 -8.13231
1 12.45 -4.31281 0
1 7.47 -7.18801 8.13231
1 2.49 -10.0632 -8.13231
1 2.49 4.31281 12.1985
1 -2.49 -4.31281 12.1985
1 -4.98 0 12.1985
1 4.98 0 -12.1985
1 -4.98 0 -12.1985
1 -2.49 4.31281 -12.1985
1 8.715 10.782 0
1 8.715 -3.59401 10.1654
1 8.715 3.59401 -10.1654
1 -4.98 12.9384 0
1 1.245 9.34441 10.1654
1 7.47 5.75041 -10.1654
1 -13.695 2.1564 0
1 -1.245 9.34441 10.1654
1 -7.47 5.75041 -10.1654
1 -8.715 -10.782 0
1 -8.715 -3.59401 10.1654
1 -8.715 3.59401 -10.1654
1 4.98 -12.9384 0
1 -7.47 -5.75041 10.1654
1 -1.245 -9.34441 -10.1654
1 13.695 -2.1564 0
1 7.47 -5.75041 10.1654
1 1.245 -9.34441 -10.1654
1 1.245 6.46921 12.1985
1 -4.98 -4.31281 12.1985
1 -6.225 -2.1564 12.1985
1 6.225 2.1564 -12.1985
1 -6.225 2.1564 -12.1985
1 -4.98 4.31281 -12.1985
1 12.45 2.8752 -2.03308
1 3.735 12.2196 2.03308
1 -8.715 9.34441 -2.03308
1 -12.45 -2.8752 2.03308
1 -3.735 -12.2196 -2.03308
1 8.715 -9.34441 2.03308
1 3.735 -2.1564 12.1985
1 0 -4.31281 -12.1985
1 11.205 3.59401 -4.06615
1 2.49 11.5008 4.06615
1 -8.715 7.90681 -4.06615
1 -11.205 -3.59401 4.06615
1 -2.49 -11.5008 -4.06615
1 8.715 -7.90681 4.06615
1 1.245 -2.1564 12.1985
1 -1.245 -2.1564 -12.1985
1 9.96 4.31281 -6.09923
1 1.245 10.782 6.09923
1 -8.715 6.46921 -6.09923
1 -9.96 -4.31281 6.09923
1 -1.245 -10.782 -6.09923
1 8.715 -6.46921 6.09923
1 -1.245 -2.1564 12.1985
1 -2.49 0 -12.1985
1 8.715 5.03161 -8.13231
1 0 10.0632 8.13231
1 -8.715 5.03161 -8.13231
1 -8.715 -5.03161 8.13231
1 0 -10.0632 -8.13231
1 8.715 -5.03161 8.13231
1 -3.735 -2.1564 12.1985
1 -3.735 2.1564 -12.1985
1 12.45 1.4376 2.03308
1 4.98 11.5008 -2.03308
1 -7.47 10.0632 2.03308
1 -12.45 -1.4376 -2.03308
1 -4.98 -11.5008 2.03308
1 7.47 -10.0632 -2.03308
1 11.205 0.7188 4.06615
1 4.98 10.0632 -4.06615
1 -6.225 9.34441 4.06615
1 -11.205 -0.7188 -4.06615
1 -4.98 -10.0632 4.06615
1 6.225 -9.34441 -4.06615
1 9.96 0 6.09923
1 4.98 8.62561 -6.09923
1 -4.98 8.62561 6.09923
1 -9.96 0 -6.09923
1 -4.98 -8.62561 6.09923
1 4.98 -8.62561 -6.09923
1 8.715 -0.7188 8.13231
1 4.98 7.18801 -8.13231
1 -3.735 7.90681 8.13231
1 -8.715 0.7188 -8.13231
1 -4.98 -7.18801 8.13231
1 3.735 -7.90681 -8.13231
1 7.47 -1.4376 10.1654
1 4.98 5.75041 -10.1654
1 -2.49 7.18801 10.1654
1 -7.47 1.4376 -10.1654
1 -4.98 -5.75041 10.1654
1 2.49 -7.18801 -10.1654
1 11.205 5.03161 -2.03308
1 1.245 12.2196 2.03308
1 -9.96 7.18801 -2.03308
1 -11.205 -5.03161 2.03308
1 -1.245 -12.2196 -2.03308
1 9.96 -7.18801 2.03308
1 2.49 0 12.1985
1 1.245 -2.1564 -12.1985
1 9.96 5.75041 -4.06615
1 0 11.5008 4.06615
1 -9.96 5.75041 -4.06615
1 -9.96 -5.75041 4.06615
1 0 -11.5008 -4.06615
1 9.96 -5.75041 4.06615
1 0 0 12.1985
1 0 0 -12.1985
1 8.715 6.46921 -6.09923
1 -1.245 10.782 6.09923
1 -9.96 4.31281 -6.09923
1 -8.715 -6.46921 6.09923
1 1.245 -10.782 -6.09923
1 9.96 -4.31281 6.09923
1 -2.49 0 12.1985
1 -1.245 2.1564 -12.1985
1 11.205 3.59401 2.03308
1 2.49 11.5008 -2.03308
1 -8.715 7.90681 2.03308
1 -11.205 -3.59401 -2.03308
1 -2.49 -11.5008 2.03308
1 8.715 -7.90681 -2.03308
1 9.96 2.8752 4.06615
1 2.49 10.0632 -4.06615
1 -7.47 7.18801 4.06615
1 -9.96 -2.8752 -4.06615
1 -2.49 -10.0632 4.06615
1 7.47 -7.18801 -4.06615
1 8.715 2.1564 6.09923
1 2.49 8.62561 -6.09923
1 -6.225 6.46921 6.09923
1 -8.715 -2.1564 -6.09923
1 -2.49 -8.62561 6.09923
1 6.225 -6.46921 -6.09923
1 7.47 1.4376 8.13231
1 2.49 7.18801 -8.13231
1 -4.98 5.75041 8.13231
1 -7.47 -1.4376 -8.13231
1 -2.49 -7.18801 8.13231
1 4.98 -5.75041 -8.13231
1 6.225 0.7188 10.1654
1 2.49 5.75041 -10.1654
1 -3.735 5.03161 10.1654
1 -6.225 -0.7188 -10.1654
1 -2.49 -5.75041 10.1654
1 3.735 -5.03161 -10.1654
1 9.96 7.18801 -2.03308
1 -1.245 12.2196 2.03308
1 -11.205 5.03161 -2.03308
1 -9.96 -7.18801 2.03308
1 1.245 -12.2196 -2.03308
1 11.205 -5.03161 2.03308
1 1.245 2.1564 12.1985
1 2.49 0 -12.1985
1 8.715 7.90681 -4.06615
1 -2.49 11.5008 4.06615
1 -11.205 3.59401 -4.06615
1 -8.715 -7.90681 4.06615
1 2.49 -11.5008 -4.06615
1 11.205 -3.59401 4.06615
1 -1.245 2.1564 12.1985
1 1.245 2.1564 -12.1985
1 9.96 5.75041 2.03308
1 0 11.5008 -2.03308
1 -9.96 5.75041 2.03308
1 -9.96 -5.75041 -2.03308
1 0 -11.5008 2.03308
1 9.96 -5.75041 -2.03308
1 8.715 5.03161 4.06615
1 0 10.0632 -4.06615
1 -8.715 5.03161 4.06615
1 -8.715 -5.03161 -4.06615
1 0 -10.0632 4.06615
1 8.715 -5.03161 -4.06615
1 7.47 4.31281 6.09923
1 0 8.62561 -6.09923
1 -7.47 4.31281 6.09923
1 -7.47 -4.31281 -6.09923
1 0 -8.62561 6.09923
1 7.47 -4.31281 -6.09923
1 6.225 3.59401 8.13231
1 0 7.18801 -8.13231
1 -6.225 3.59401 8.13231
1 -6.225 -3.59401 -8.13231
1 0 -7.18801 8.13231
1 6.225 -3.59401 -8.13231
1 4.98 2.8752 10.1654
1 0 5.75041 -10.1654
1 -4.98 2.8752 10.1654
1 -4.98 -2.8752 -10.1654
1 0 -5.75041 10.1654
1 4.98 -2.8752 -10.1654
1 8.715 9.34441 -2.03308
1 -3.735 12.2196 2.03308
1 -12.45 2.8752 -2.03308
1 -8.715 -9.34441 2.03308
1 3.735 -12.2196 -2.03308
1 12.45 -2.8752 2.03308
1 0 4.31281 12.1985
1 3.735 2.1564 -12.1985
1 8.715 7.90681 2.03308
1 -2.49 11.5008 -2.03308
1 -11.205 3.59401 2.03308
1 -8.715 -7.90681 -2.03308
1 2.49 -11.5008 2.03308
1 11.205 -3.59401 -2.03308
1 7.47 7.18801 4.06615
1 -2.49 10.0632 -4.06615
1 -9.96 2.8752 4.06615
1 -7.47 -7.18801 -4.06615
1 2.49 -10.0632 4.06615
1 9.96 -2.8752 -4.06615
1 6.225 6.46921 6.09923
1 -2.49 8.62561 -6.09923
1 -8.715 2.1564 6.09923
1 -6.225 -6.46921 -6.09923
1 2.49 -8.62561 6.09923
1 8.715 -2.1564 -6.09923
1 4.98 5.75041 8.13231
1 -2.49 7.18801 -8.13231
1 -7.47 1.4376 8.13231
1 -4.98 -5.75041 -8.13231
1 2.49 -7.18801 8.13231
1 7.47 -1.4376 -8.13231
1 3.735 5.03161 10.1654
1 -2.49 5.75041 -10.1654
1 -6.225 0.7188 10.1654
1 -3.735 -5.03161 -10.1654
1 2.49 -5.75041 10.1654
1 6.225 -0.7188 -10.1654
1 7.47 10.0632 2.03308
1 -4.98 11.5008 -2.03308
1 -12.45 1.4376 2.03308
1 -7.47 -10.0632 -2.03308
1 4.98 -11.5008 2.03308
1 12.45 -1.4376 -2.03308
1 6.225 9.34441 4.06615
1 -4.98 10.0632 -4.06615
1 -11.205 0.7188 4.06615
1 -6.225 -9.34441 -4.06615
1 4.98 -10.0632 4.06615
1 11.205 -0.7188 -4.06615
1 4.98 8.62561 6.09923
1 -4.98 8.62561 -6.09923
1 -9.96 -0 6.09923
1 -4.98 -8.62561 -6.09923
1 4.98 -8.62561 6.09923
1 9.96 0 -6.09923
1 3.735 7.90681 8.13231
1 -4.98 7.18801 -8.13231
1 -8.715 -0.7188 8.13231
1 -3.735 -7.90681 -8.13231
1 4.98 -7.18801 8.13231
1 8.715 0.7188 -8.13231
1 2.49 7.18801 10.1654
1 -4.98 5.75041 -10.1654
1 -7.47 -1.4376 10.1654
1 -2.49 -7.18801 -10.1654
1 4.98 -5.75041 10.1654
1 7.47 1.4376 -10.1654
741
 Atoms. Timestep: 10
2 -3.81167 -5.01555 -1.52821
2 0.978327 1.81823 0.539008
2 -1.62614 1.22585 -0.241722
2 -9.15658 0.834639 -8.23051
2 -13.7753 -3.62118 13.4728
2 1.43794 -2.48407 0.125384
2 0.989547 0.52701 2.52351
2 0.275272 1.56412 2.04621
2 -1.32509 -0.624614 2.32381
2 3.14248 0.735018 0.493624
2 1.38612 0.801496 -2.30399
2 -1.29442 0.815335 -2.23549
2 8.17594 -0.223161 0.0347653
2 4.02592 6.9684 0.0429456
2 -3.69476 12.1566 -3.02471
2 -12.0404 -3.37755 -5.7572
2 -4.82725 -19.6816 -0.98653
2 1.73217 -8.73509 -0.892107
2 4.10884 -2.30881 6.71872
2 0.54337 4.62914 7.09202
2 -3.70743 -1.72937 7.44978
2 0.0469706 -4.82193 -6.79638
2 3.97987 2.14395 -6.89632
2 -4.24464 2.24081 -6.74432
2 17.9104 0.449143 -2.88753
2 -1.7933 -15.8904 -3.70398
2 2.76692 6.7021 2.39568
2 4.09023 5.61584 -2.34489
2 -5.46366 4.68249 -0.0478761
2 -3.87013 8.22823 2.57626
2 -6.88234 -2.44077 -0.0463853
2 -7.19757 -1.05581 2.05828
2 -6.82259 0.889602 -2.21005
2 -1.33609 -7.32549 -0.0487838
2 -4.2642 -5.60115 2.47163
2 -2.74674 -6.33753 -2.30255
2 4.10181 -5.57233 2.29939
2 3.32607 -6.49653 -2.1703
2 2.60319 0.283589 6.29239
2 0.66642 -1.80192 6.83678
2 -1.02115 2.7569 7.04423
2 1.23285 -2.44993 -6.78738
2 -2.48726 0.384419 -4.18322
2 1.31902 2.27116 -6.67397
2 5.31239 4.7804 -0.0304082
2 4.6109 -0.852123 3.77642
2 5.34631 2.17881 -5.50268
2 -1.44949 7.2224 0.0589958
2 1.32363 5.69368 4.4891
2 3.94817 3.85591 -4.04882
2 -6.95509 2.43603 -0.0555791
2 -2.16006 8.15037 10.5122
2 -4.19598 4.10919 -4.62634
2 -0.224554 -10.9822 3.88839
2 -4.60737 -1.22996 2.47759
2 -5.4853 1.71369 -4.64015
2 5.78364 -13.6542 3.92685
2 -0.740003 1.27412 4.1666
2 -3.7466 -3.48955 -1.40914
2 7.01228 -2.20214 0.306693
2 -5.82443 3.96793 6.90197
2 2.45717 -2.43791 -1.25223
2 2.28713 5.00629 11.5676
2 -5.22975 2.74297 8.04353
2 12.5348 1.94832 -18.3622
2 -2.80726 0.160972 -6.96564
2 -2.57635 2.87621 -7.56584
2 5.44404 3.14548 -2.16559
2 0.00610759 6.44749 2.31103
2 -5.34618 3.20347 -2.28381
2 -13.0705 -14.6154 -16.8025
2 -0.758111 -6.86335 -2.06616
2 5.48974 -3.2007 2.2758
2 -0.117713 0.157023 6.84517
2 -0.0557069 -0.0656336 -6.65959
2 5.35685 1.39176 2.15906
2 0.0385501 5.36078 -0.0415486
2 -3.27357 3.33636 1.83632
2 -6.46654 4.97306 8.08829
2 -1.36251 -5.43311 2.19909
2 4.07889 -4.02564 -2.24112
2 3.82992 0.736199 4.36915
2 1.40087 3.79621 -4.49142
2 -2.64766 3.18532 4.3935
2 8.20773 -4.77627 4.01279
2 -1.46509 -3.83479 4.57255
2 1.70687 -6.01917 -11.325
2 -0.103124 6.03317 0.678861
2 -1.52071 5.42918 -2.17166
2 -5.64538 2.45957 1.78735
2 -4.14125 -3.85313 -2.07401
2 1.34909 -5.40758 2.1847
2 5.82039 -1.01267 -1.87518
2 1.58218 3.74688 5.73123
2 -2.39055 3.8601 -5.66025
2 -3.40156 0.841279 3.81733
2 -4.41636 -15.7609 -19.1098
2 1.43684 -3.80543 4.51739
2 3.87702 -0.685104 -4.50174
2 3.89568 19.3307 2.09214
2 -12.5514 22.4945 0.865415
2 -10.124 -4.91724 9.2946
2 8.63934 6.41514 -19.1191
2 16.2358 1.68768 -5.68934
2 19.6508 17.418 2.05307
2 9.72972 15.2569 -7.37668
2 -2.70654 8.91139 5.93891
2 9.55016 -21.2573 -0.932204
2 -8.88361 -3.55361 10.0319
2 -1.55176 5.45087 9.84273
2 2.09078 -10.1801 -16.445
2 9.31565 -10.3958 0.379089
2 6.13792 -6.87187 5.46446
2 1.76253 -9.5867 -8.82757
2 16.0495 -15.6333 23.2698
2 -1.19606 -3.59747 10.3777
2 2.3794 -5.08145 -13.6298
2 -3.10122 -4.29888 -13.7552
2 -10.8007 4.66368 -15.2448
2 0.099801 -7.95718 16.7829
2 -12.2877 -14.7744 -0.0600225
2 15.8618 -9.80344 24.5517
2 10.4595 0.925053 3.28625
2 9.03271 1.72936 -4.85613
2 8.20314 -8.01144 1.81631
2 -2.27555 4.33344 7.91969
2 0.063111 -3.47061 -11.2641
2 16.1447 -3.94983 -5.23014
2 0.184568 12.0845 9.95658
2 -15.9358 -7.85426 22.9462
2 -0.68728 -1.84336 4.14484
2 8.64527 1.29145 2.82896
2 -8.99743 12.6584 1.56347
2 -6.89271 -15.3305 2.38816
2 6.58954 0.551705 4.26353
2 3.06277 9.16228 -9.34511
2 -4.00577 5.94526 4.22468
2 -6.46344 -0.51516 -4.29118
2 -2.98304 -6.04413 4.54408
2 3.77502 -5.63619 -4.35833
2 -23.4389 4.28598 24.8312
2 -3.55641 12.055 18.7503
2 1.82226 -16.6589 -22.1809
2 7.00944 6.32989 -1.92808
2 -7.70434 18.7101 1.89537
2 6.79583 3.91806 1.92133
2 -0.179561 7.53346 -2.0291
2 -6.83185 4.00585 1.86672
2 -6.69395 -4.01182 -2.10075
2 -0.181777 -8.10968 1.90129
2 6.55401 -3.98002 -1.85036
2 4.997 2.98045 4.09044
2 -0.0193773 5.92668 -4.14039
2 -5.12925 2.91666 4.20676
2 -3.82802 -9.30696 -4.29735
2 0.0744034 -5.79697 4.39186
2 6.05296 -3.89664 -4.6861
2 3.95205 2.15344 6.58114
2 -0.135862 4.34923 -6.63417
2 -4.01555 2.54438 6.53867
2 -3.91311 -2.16502 -6.67764
2 -0.0150089 -4.39751 6.88856
2 3.69759 -2.23638 -6.89514
2 -10.3499 22.6077 -3.2517
2 -9.78743 -14.1872 -2.13896
2 3.81019 5.48243 4.31911
2 -2.79602 6.11737 -4.36066
2 -18.0001 1.6099 8.07768
2 -3.74965 -5.33991 -4.53467
2 2.9269 -6.13914 4.33512
2 6.7664 -0.555555 -4.31966
2 -4.52772 -0.4204 -0.047834
1 -6.75878 -12.1685 -0.400861
1 0.488594 2.75077 0.915496
1 -15.6728 -13.4228 10.8369
1 2.54595 -3.1336 10.2472
1 -13.2326 -15.2082 -0.209982
1 -13.8519 -15.2825 -1.97916
1 7.41665 0.321756 -5.9082
1 -2.47919 5.97377 2.4174
1 -6.4383 -4.01101 3.47785
1 -10.3645 -15.9948 8.58542
1 11.378 20.046 -2.27978
1 2.62864 0.160019 6.40128
1 -1.36576 2.55476 7.2942
1 -1.48834 -1.67223 -5.84352
1 2.59634 3.08086 -8.46445
1 9.72559 4.68118 -0.0572573
1 9.89314 -1.52204 4.13118
1 8.12721 1.64775 -4.74019
1 -6.81576 4.68056 0.392716
1 2.61388 7.60454 4.95658
1 4.63966 5.01448 -5.28475
1 -8.89189 6.22182 -0.0209099
1 -3.47324 9.21055 4.4507
1 -6.16517 7.0623 -5.22065
1 2.96522 -14.3289 -1.29903
1 -10.0097 -1.49915 4.25458
1 -9.87502 1.52708 -4.28582
1 -6.31734 -12.1277 1.96974
1 -4.03815 -10.7922 -4.89248
1 8.42823 -4.82097 -0.0625002
1 6.31164 -7.71431 4.22917
1 3.69251 -9.37669 -4.19159
1 -0.619931 6.34713 5.78903
1 1.14087 -3.59158 10.1399
1 2.94955 -1.78491 -9.29111
1 -2.8479 -1.7605 -9.45782
1 1.62986 3.61902 -10.7687
1 8.73819 2.17476 -6.2496
1 -0.958419 10.8893 0.0251135
1 2.21873 8.87982 6.5389
1 6.32911 6.57004 -6.2334
1 -14.2847 15.5907 6.48302
1 -2.75436 8.64625 5.51148
1 -10.9393 15.7884 -6.1767
1 -8.95782 -6.11195 0.196976
1 -8.7097 -1.5755 4.43659
1 -16.3975 -18.2013 21.3579
1 0.976353 -10.8635 -0.02091
1 -6.32896 -6.6451 5.97255
1 -3.84165 -6.8548 -1.66861
1 9.98828 -4.4477 -0.0474585
1 6.30868 -6.83683 5.65433
1 2.96152 -8.40443 -4.73902
1 2.74844 2.64492 10.4975
1 -0.64975 -3.55181 9.99591
1 -3.65778 0.955528 10.2719
1 3.64988 -0.787638 -10.2675
1 -3.86235 -0.608373 -10.3009
1 1.67688 3.18476 -8.01091
1 -9.81522 17.2337 -17.1078
1 -18.3071 -6.91061 20.1491
1 -1.35705 3.32339 0.73542
1 -4.50411 4.50511 -5.26024
1 -5.85564 -5.08638 0.0476528
1 0.817554 3.61744 -2.02892
1 -5.81574 1.29822 -5.18502
1 1.85471 -1.62429 -4.23205
1 -1.42385 -2.18972 -0.451801
1 -1.43255 -4.87779 -3.72376
1 3.99421 -4.59725 4.23721
1 1.32705 -2.93666 -0.190408
1 2.10582 -1.92196 0.75401
1 3.61806 6.41131 -6.07161
1 -0.214444 2.10975 2.12758
1 -3.21218 -4.48872 2.21978
1 -1.78801 3.70807 -5.87486
1 6.83095 3.95628 -3.14653
1 -5.9234 4.49534 -1.9226
1 2.82008 0.963413 -0.654632
1 -6.32243 -12.0001 -0.750428
1 7.12651 -6.51566 2.12216
1 1.22145 -0.50692 8.13814
1 -0.0523185 -2.31298 -9.6977
1 8.89596 3.64452 -5.09125
1 1.29997 9.496 4.05966
1 -7.60402 5.86822 -4.07521
1 -8.86158 -3.63034 4.11284
1 -1.14959 -9.4302 -3.95998
1 7.52622 -5.70072 4.06473
1 0.0044877 -1.35094 10.2989
1 -1.23687 -0.712917 -10.3056
1 -1.27515 8.00259 -0.956992
1 0.147051 7.47137 3.74459
1 -6.53866 3.90904 -3.4297
1 -2.6808 0.310058 6.45422
1 0.259121 -10.0555 -8.20131
1 5.41449 -3.80818 2.88341
1 5.71189 1.85506 -6.0845
1 -12.3875 8.37604 -23.8217
1 9.81811 1.08261 1.99733
1 -5.05426 5.4514 1.88893
1 3.07504 -1.95302 -2.41994
1 -2.63899 -6.77015 1.66406
1 -3.22185 4.02505 2.24364
1 8.80388 0.742678 4.0861
1 3.89508 7.95689 -4.09683
1 -4.93347 7.1117 4.10932
1 -8.88672 -0.753006 -4.19737
1 -3.796 -8.04585 4.1954
1 5.01373 -7.2474 -4.1774
1 7.57804 -0.0421856 6.20395
1 4.31271 6.56819 -6.771
1 -3.83405 6.55426 6.15772
1 -7.60714 -0.04562 -6.14747
1 -3.92257 -6.60741 5.85184
1 3.89801 -6.5113 -6.18174
1 -0.442946 -1.47784 1.30728
1 11.4906 5.29179 -17.475
1 -2.08149 3.55934 4.42717
1 3.30177 -3.81815 5.5897
1 1.38525 -0.69828 -1.31621
1 2.9893 -1.22167 -1.47032
1 8.85379 5.14721 -2.06805
1 0.0368153 10.1356 2.08989
1 -8.8901 4.94065 -2.10507
1 -8.73333 -5.11184 2.18244
1 -0.0692092 -10.1168 -2.06402
1 8.83213 -5.1464 2.07155
1 1.86033 0.691668 10.439
1 1.20408 -0.782211 -10.3277
1 7.65026 5.86319 -4.15373
1 -1.2252 9.53595 4.07828
1 -8.86265 3.64873 -3.97598
1 -7.48988 -5.79031 3.97461
1 1.21118 -9.48421 -4.07946
1 8.87799 -3.78984 4.0441
1 -1.15892 0.699516 10.2579
1 0.0175902 1.37933 -10.3036
1 8.73641 3.64577 2.08764
1 1.24999 9.51479 -2.04976
1 -7.64685 5.79317 2.03557
1 -8.91962 -3.71747 -2.0416
1 -1.08804 -9.47978 2.12446
1 7.56391 -5.80152 -1.97037
1 7.57546 2.88727 4.10111
1 1.24675 8.05968 -4.0733
1 -6.255 5.13165 4.134
1 -7.61724 -2.89107 -4.14579
1 -1.27023 -7.99678 4.06973
1 6.32867 -6.03754 -3.51532
1 6.31297 2.14181 6.21254
1 1.22826 6.4988 -6.32944
1 -4.99313 4.40069 6.22925
1 -6.32343 -2.18752 -6.17601
1 -1.22796 -6.50591 6.09821