LAMMPS DATA FOR MEAM SIMULATION

    887   atoms
      2   atom types

  -23.76   23.76   xlo xhi
  -23.76   23.76   ylo yhi
  -23.76   23.76   zlo zhi

 Atoms

     1   2    -3.93151    -7.86303   -11.79454
     2   2     0.00000    -7.86303   -11.79454
     3   2     3.93151    -7.86303   -11.79454
     4   2    -7.86303    -3.93151   -11.79454
     5   2    -3.93151    -3.93151   -11.79454
     6   2     0.00000    -3.93151   -11.79454
     7   2     3.93151    -3.93151   -11.79454
     8   2     7.86303    -3.93151   -11.79454
     9   2    -7.86303     0.00000   -11.79454
    10   2    -3.93151     0.00000   -11.79454
    11   2     3.93151     0.00000   -11.79454
    12   2     7.86303     0.00000   -11.79454
    13   2    -7.86303     3.93151   -11.79454
    14   2    -3.93151     3.93151   -11.79454
    15   2     0.00000     3.93151   -11.79454
    16   2     3.93151     3.93151   -11.79454
    17   2     7.86303     3.93151   -11.79454
    18   2    -3.93151     7.86303   -11.79454
    19   2     0.00000     7.86303   -11.79454
    20   2     3.93151     7.86303   -11.79454
    21   2    -3.93151   -11.79454    -7.86303
    22   2     0.00000   -11.79454    -7.86303
    23   2     3.93151   -11.79454    -7.86303
    24   2    -7.86303    -7.86303    -7.86303
    25   2     7.86303    -7.86303    -7.86303
    26   2   -11.79454    -3.93151    -7.86303
    27   2    11.79454    -3.93151    -7.86303
    28   2   -11.79454     0.00000    -7.86303
    29   2    11.79454     0.00000    -7.86303
    30   2   -11.79454     3.93151    -7.86303
    31   2    11.79454     3.93151    -7.86303
    32   2    -7.86303     7.86303    -7.86303
    33   2     7.86303     7.86303    -7.86303
    34   2    -3.93151    11.79454    -7.86303
    35   2     0.00000    11.79454    -7.86303
    36   2     3.93151    11.79454    -7.86303
    37   2    -7.86303   -11.79454    -3.93151
    38   2    -3.93151   -11.79454    -3.93151
    39   2     0.00000   -11.79454    -3.93151
    40   2     3.93151   -11.79454    -3.93151
    41   2     7.86303   -11.79454    -3.93151
    42   2   -11.79454    -7.86303    -3.93151
    43   2    11.79454    -7.86303    -3.93151
    44   2   -11.79454    -3.93151    -3.93151
    45   2    11.79454    -3.93151    -3.93151
    46   2   -11.79454     0.00000    -3.93151
    47   2    11.79454     0.00000    -3.93151
    48   2   -11.79454     3.93151    -3.93151
    49   2    11.79454     3.93151    -3.93151
    50   2   -11.79454     7.86303    -3.93151
    51   2    11.79454     7.86303    -3.93151
    52   2    -7.86303    11.79454    -3.93151
    53   2    -3.93151    11.79454    -3.93151
    54   2     0.00000    11.79454    -3.93151
    55   2     3.93151    11.79454    -3.93151
    56   2     7.86303    11.79454    -3.93151
    57   2    -7.86303   -11.79454     0.00000
    58   2    -3.93151   -11.79454     0.00000
    59   2     3.93151   -11.79454     0.00000
    60   2     7.86303   -11.79454     0.00000
    61   2   -11.79454    -7.86303     0.00000
    62   2    11.79454    -7.86303     0.00000
    63   2   -11.79454    -3.93151     0.00000
    64   2    11.79454    -3.93151     0.00000
    65   2   -11.79454     3.93151     0.00000
    66   2    11.79454     3.93151     0.00000
    67   2   -11.79454     7.86303     0.00000
    68   2    11.79454     7.86303     0.00000
    69   2    -7.86303    11.79454     0.00000
    70   2    -3.93151    11.79454     0.00000
    71   2     3.93151    11.79454     0.00000
    72   2     7.86303    11.79454     0.00000
    73   2    -7.86303   -11.79454     3.93151
    74   2    -3.93151   -11.79454     3.93151
    75   2     0.00000   -11.79454     3.93151
    76   2     3.93151   -11.79454     3.93151
    77   2     7.86303   -11.79454     3.93151
    78   2   -11.79454    -7.86303     3.93151
    79   2    11.79454    -7.86303     3.93151
    80   2   -11.79454    -3.93151     3.93151
    81   2    11.79454    -3.93151     3.93151
    82   2   -11.79454     0.00000     3.93151
    83   2    11.79454     0.00000     3.93151
    84   2   -11.79454     3.93151     3.93151
    85   2    11.79454     3.93151     3.93151
    86   2   -11.79454     7.86303     3.93151
    87   2    11.79454     7.86303     3.93151
    88   2    -7.86303    11.79454     3.93151
    89   2    -3.93151    11.79454     3.93151
    90   2     0.00000    11.79454     3.93151
    91   2     3.93151    11.79454     3.93151
    92   2     7.86303    11.79454     3.93151
    93   2    -3.93151   -11.79454     7.86303
    94   2     0.00000   -11.79454     7.86303
    95   2     3.93151   -11.79454     7.86303
    96   2    -7.86303    -7.86303     7.86303
    97   2     7.86303    -7.86303     7.86303
    98   2   -11.79454    -3.93151     7.86303
    99   2    11.79454    -3.93151     7.86303
   100   2   -11.79454     0.00000     7.86303
   101   2    11.79454     0.00000     7.86303
   102   2   -11.79454     3.93151     7.86303
   103   2    11.79454     3.93151     7.86303
   104   2    -7.86303     7.86303     7.86303
   105   2     7.86303     7.86303     7.86303
   106   2    -3.93151    11.79454     7.86303
   107   2     0.00000    11.79454     7.86303
   108   2     3.93151    11.79454     7.86303
   109   2    -3.93151    -7.86303    11.79454
   110   2     0.00000    -7.86303    11.79454
   111   2     3.93151    -7.86303    11.79454
   112   2    -7.86303    -3.93151    11.79454
   113   2    -3.93151    -3.93151    11.79454
   114   2     0.00000    -3.93151    11.79454
   115   2     3.93151    -3.93151    11.79454
   116   2     7.86303    -3.93151    11.79454
   117   2    -7.86303     0.00000    11.79454
   118   2    -3.93151     0.00000    11.79454
   119   2     3.93151     0.00000    11.79454
   120   2     7.86303     0.00000    11.79454
   121   2    -7.86303     3.93151    11.79454
   122   2    -3.93151     3.93151    11.79454
   123   2     0.00000     3.93151    11.79454
   124   2     3.93151     3.93151    11.79454
   125   2     7.86303     3.93151    11.79454
   126   2    -3.93151     7.86303    11.79454
   127   2     0.00000     7.86303    11.79454
   128   2     3.93151     7.86303    11.79454
   129   2    -5.89727    -5.89727   -11.79454
   130   2    -1.96576    -5.89727   -11.79454
   131   2     1.96576    -5.89727   -11.79454
   132   2     5.89727    -5.89727   -11.79454
   133   2    -5.89727    -1.96576   -11.79454
   134   2     5.89727    -1.96576   -11.79454
   135   2    -5.89727     1.96576   -11.79454
   136   2     5.89727     1.96576   -11.79454
   137   2    -5.89727     5.89727   -11.79454
   138   2    -1.96576     5.89727   -11.79454
   139   2     1.96576     5.89727   -11.79454
   140   2     5.89727     5.89727   -11.79454
   141   2    -5.89727    -9.82878    -7.86303
   142   2    -1.96576    -9.82878    -7.86303
   143   2     1.96576    -9.82878    -7.86303
   144   2     5.89727    -9.82878    -7.86303
   145   2    -9.82878    -5.89727    -7.86303
   146   2     9.82878    -5.89727    -7.86303
   147   2    -9.82878    -1.96576    -7.86303
   148   2     9.82878    -1.96576    -7.86303
   149   2    -9.82878     1.96576    -7.86303
   150   2     9.82878     1.96576    -7.86303
   151   2    -9.82878     5.89727    -7.86303
   152   2     9.82878     5.89727    -7.86303
   153   2    -5.89727     9.82878    -7.86303
   154   2    -1.96576     9.82878    -7.86303
   155   2     1.96576     9.82878    -7.86303
   156   2     5.89727     9.82878    -7.86303
   157   2    -1.96576   -13.76030    -3.93151
   158   2     1.96576   -13.76030    -3.93151
   159   2    -9.82878    -9.82878    -3.93151
   160   2     9.82878    -9.82878    -3.93151
   161   2   -13.76030    -1.96576    -3.93151
   162   2    13.76030    -1.96576    -3.93151
   163   2   -13.76030     1.96576    -3.93151
   164   2    13.76030     1.96576    -3.93151
   165   2    -9.82878     9.82878    -3.93151
   166   2     9.82878     9.82878    -3.93151
   167   2    -1.96576    13.76030    -3.93151
   168   2     1.96576    13.76030    -3.93151
   169   2    -5.89727   -13.76030     0.00000
   170   2    -1.96576   -13.76030     0.00000
   171   2     1.96576   -13.76030     0.00000
   172   2     5.89727   -13.76030     0.00000
   173   2    -9.82878    -9.82878     0.00000
   174   2     9.82878    -9.82878     0.00000
   175   2   -13.76030    -5.89727     0.00000
   176   2    13.76030    -5.89727     0.00000
   177   2   -13.76030    -1.96576     0.00000
   178   2    13.76030    -1.96576     0.00000
   179   2   -13.76030     1.96576     0.00000
   180   2    13.76030     1.96576     0.00000
   181   2   -13.76030     5.89727     0.00000
   182   2    13.76030     5.89727     0.00000
   183   2    -9.82878     9.82878     0.00000
   184   2     9.82878     9.82878     0.00000
   185   2    -5.89727    13.76030     0.00000
   186   2    -1.96576    13.76030     0.00000
   187   2     1.96576    13.76030     0.00000
   188   2     5.89727    13.76030     0.00000
   189   2    -1.96576   -13.76030     3.93151
   190   2     1.96576   -13.76030     3.93151
   191   2    -9.82878    -9.82878     3.93151
   192   2     9.82878    -9.82878     3.93151
   193   2   -13.76030    -1.96576     3.93151
   194   2    13.76030    -1.96576     3.93151
   195   2   -13.76030     1.96576     3.93151
   196   2    13.76030     1.96576     3.93151
   197   2    -9.82878     9.82878     3.93151
   198   2     9.82878     9.82878     3.93151
   199   2    -1.96576    13.76030     3.93151
   200   2     1.96576    13.76030     3.93151
   201   2    -5.89727    -9.82878     7.86303
   202   2    -1.96576    -9.82878     7.86303
   203   2     1.96576    -9.82878     7.86303
   204   2     5.89727    -9.82878     7.86303
   205   2    -9.82878    -5.89727     7.86303
   206   2     9.82878    -5.89727     7.86303
   207   2    -9.82878    -1.96576     7.86303
   208   2     9.82878    -1.96576     7.86303
   209   2    -9.82878     1.96576     7.86303
   210   2     9.82878     1.96576     7.86303
   211   2    -9.82878     5.89727     7.86303
   212   2     9.82878     5.89727     7.86303
   213   2    -5.89727     9.82878     7.86303
   214   2    -1.96576     9.82878     7.86303
   215   2     1.96576     9.82878     7.86303
   216   2     5.89727     9.82878     7.86303
   217   2    -5.89727    -5.89727    11.79454
   218   2    -1.96576    -5.89727    11.79454
   219   2     1.96576    -5.89727    11.79454
   220   2     5.89727    -5.89727    11.79454
   221   2    -5.89727    -1.96576    11.79454
   222   2     5.89727    -1.96576    11.79454
   223   2    -5.89727     1.96576    11.79454
   224   2     5.89727     1.96576    11.79454
   225   2    -5.89727     5.89727    11.79454
   226   2    -1.96576     5.89727    11.79454
   227   2     1.96576     5.89727    11.79454
   228   2     5.89727     5.89727    11.79454
   229   2    -5.89727   -11.79454    -5.89727
   230   2    -1.96576   -11.79454    -5.89727
   231   2     1.96576   -11.79454    -5.89727
   232   2     5.89727   -11.79454    -5.89727
   233   2    -5.89727   -11.79454    -1.96576
   234   2     5.89727   -11.79454    -1.96576
   235   2    -5.89727   -11.79454     1.96576
   236   2     5.89727   -11.79454     1.96576
   237   2    -5.89727   -11.79454     5.89727
   238   2    -1.96576   -11.79454     5.89727
   239   2     1.96576   -11.79454     5.89727
   240   2     5.89727   -11.79454     5.89727
   241   2    -5.89727    -7.86303    -9.82878
   242   2    -1.96576    -7.86303    -9.82878
   243   2     1.96576    -7.86303    -9.82878
   244   2     5.89727    -7.86303    -9.82878
   245   2    -9.82878    -7.86303    -5.89727
   246   2     9.82878    -7.86303    -5.89727
   247   2    -9.82878    -7.86303    -1.96576
   248   2     9.82878    -7.86303    -1.96576
   249   2    -9.82878    -7.86303     1.96576
   250   2     9.82878    -7.86303     1.96576
   251   2    -9.82878    -7.86303     5.89727
   252   2     9.82878    -7.86303     5.89727
   253   2    -5.89727    -7.86303     9.82878
   254   2    -1.96576    -7.86303     9.82878
   255   2     1.96576    -7.86303     9.82878
   256   2     5.89727    -7.86303     9.82878
   257   2    -1.96576    -3.93151   -13.76030
   258   2     1.96576    -3.93151   -13.76030
   259   2    -9.82878    -3.93151    -9.82878
   260   2     9.82878    -3.93151    -9.82878
   261   2   -13.76030    -3.93151    -1.96576
   262   2    13.76030    -3.93151    -1.96576
   263   2   -13.76030    -3.93151     1.96576
   264   2    13.76030    -3.93151     1.96576
   265   2    -9.82878    -3.93151     9.82878
   266   2     9.82878    -3.93151     9.82878
   267   2    -1.96576    -3.93151    13.76030
   268   2     1.96576    -3.93151    13.76030
   269   2    -5.89727     0.00000   -13.76030
   270   2    -1.96576     0.00000   -13.76030
   271   2     1.96576     0.00000   -13.76030
   272   2     5.89727     0.00000   -13.76030
   273   2    -9.82878     0.00000    -9.82878
   274   2     9.82878     0.00000    -9.82878
   275   2   -13.76030     0.00000    -5.89727
   276   2    13.76030     0.00000    -5.89727
   277   2   -13.76030     0.00000    -1.96576
   278   2    13.76030     0.00000    -1.96576
   279   2   -13.76030     0.00000     1.96576
   280   2    13.76030     0.00000     1.96576
   281   2   -13.76030     0.00000     5.89727
   282   2    13.76030     0.00000     5.89727
   283   2    -9.82878     0.00000     9.82878
   284   2     9.82878     0.00000     9.82878
   285   2    -5.89727     0.00000    13.76030
   286   2    -1.96576     0.00000    13.76030
   287   2     1.96576     0.00000    13.76030
   288   2     5.89727     0.00000    13.76030
   289   2    -1.96576     3.93151   -13.76030
   290   2     1.96576     3.93151   -13.76030
   291   2    -9.82878     3.93151    -9.82878
   292   2     9.82878     3.93151    -9.82878
   293   2   -13.76030     3.93151    -1.96576
   294   2    13.76030     3.93151    -1.96576
   295   2   -13.76030     3.93151     1.96576
   296   2    13.76030     3.93151     1.96576
   297   2    -9.82878     3.93151     9.82878
   298   2     9.82878     3.93151     9.82878
   299   2    -1.96576     3.93151    13.76030
   300   2     1.96576     3.93151    13.76030
   301   2    -5.89727     7.86303    -9.82878
   302   2    -1.96576     7.86303    -9.82878
   303   2     1.96576     7.86303    -9.82878
   304   2     5.89727     7.86303    -9.82878
   305   2    -9.82878     7.86303    -5.89727
   306   2     9.82878     7.86303    -5.89727
   307   2    -9.82878     7.86303    -1.96576
   308   2     9.82878     7.86303    -1.96576
   309   2    -9.82878     7.86303     1.96576
   310   2     9.82878     7.86303     1.96576
   311   2    -9.82878     7.86303     5.89727
   312   2     9.82878     7.86303     5.89727
   313   2    -5.89727     7.86303     9.82878
   314   2    -1.96576     7.86303     9.82878
   315   2     1.96576     7.86303     9.82878
   316   2     5.89727     7.86303     9.82878
   317   2    -5.89727    11.79454    -5.89727
   318   2    -1.96576    11.79454    -5.89727
   319   2     1.96576    11.79454    -5.89727
   320   2     5.89727    11.79454    -5.89727
   321   2    -5.89727    11.79454    -1.96576
   322   2     5.89727    11.79454    -1.96576
   323   2    -5.89727    11.79454     1.96576
   324   2     5.89727    11.79454     1.96576
   325   2    -5.89727    11.79454     5.89727
   326   2    -1.96576    11.79454     5.89727
   327   2     1.96576    11.79454     5.89727
   328   2     5.89727    11.79454     5.89727
   329   2   -11.79454    -5.89727    -5.89727
   330   2   -11.79454    -1.96576    -5.89727
   331   2   -11.79454     1.96576    -5.89727
   332   2   -11.79454     5.89727    -5.89727
   333   2   -11.79454    -5.89727    -1.96576
   334   2   -11.79454     5.89727    -1.96576
   335   2   -11.79454    -5.89727     1.96576
   336   2   -11.79454     5.89727     1.96576
   337   2   -11.79454    -5.89727     5.89727
   338   2   -11.79454    -1.96576     5.89727
   339   2   -11.79454     1.96576     5.89727
   340   2   -11.79454     5.89727     5.89727
   341   2    -7.86303    -5.89727    -9.82878
   342   2    -7.86303    -1.96576    -9.82878
   343   2    -7.86303     1.96576    -9.82878
   344   2    -7.86303     5.89727    -9.82878
   345   2    -7.86303    -9.82878    -5.89727
   346   2    -7.86303     9.82878    -5.89727
   347   2    -7.86303    -9.82878    -1.96576
   348   2    -7.86303     9.82878    -1.96576
   349   2    -7.86303    -9.82878     1.96576
   350   2    -7.86303     9.82878     1.96576
   351   2    -7.86303    -9.82878     5.89727
   352   2    -7.86303     9.82878     5.89727
   353   2    -7.86303    -5.89727     9.82878
   354   2    -7.86303    -1.96576     9.82878
   355   2    -7.86303     1.96576     9.82878
   356   2    -7.86303     5.89727     9.82878
   357   2    -3.93151    -1.96576   -13.76030
   358   2    -3.93151     1.96576   -13.76030
   359   2    -3.93151    -9.82878    -9.82878
   360   2    -3.93151     9.82878    -9.82878
   361   2    -3.93151   -13.76030    -1.96576
   362   2    -3.93151    13.76030    -1.96576
   363   2    -3.93151   -13.76030     1.96576
   364   2    -3.93151    13.76030     1.96576
   365   2    -3.93151    -9.82878     9.82878
   366   2    -3.93151     9.82878     9.82878
   367   2    -3.93151    -1.96576    13.76030
   368   2    -3.93151     1.96576    13.76030
   369   2     0.00000    -5.89727   -13.76030
   370   2     0.00000    -1.96576   -13.76030
   371   2     0.00000     1.96576   -13.76030
   372   2     0.00000     5.89727   -13.76030
   373   2     0.00000    -9.82878    -9.82878
   374   2     0.00000     9.82878    -9.82878
   375   2     0.00000   -13.76030    -5.89727
   376   2     0.00000    13.76030    -5.89727
   377   2     0.00000   -13.76030    -1.96576
   378   2     0.00000    13.76030    -1.96576
   379   2     0.00000   -13.76030     1.96576
   380   2     0.00000    13.76030     1.96576
   381   2     0.00000   -13.76030     5.89727
   382   2     0.00000    13.76030     5.89727
   383   2     0.00000    -9.82878     9.82878
   384   2     0.00000     9.82878     9.82878
   385   2     0.00000    -5.89727    13.76030
   386   2     0.00000    -1.96576    13.76030
   387   2     0.00000     1.96576    13.76030
   388   2     0.00000     5.89727    13.76030
   389   2     3.93151    -1.96576   -13.76030
   390   2     3.93151     1.96576   -13.76030
   391   2     3.93151    -9.82878    -9.82878
   392   2     3.93151     9.82878    -9.82878
   393   2     3.93151   -13.76030    -1.96576
   394   2     3.93151    13.76030    -1.96576
   395   2     3.93151   -13.76030     1.96576
   396   2     3.93151    13.76030     1.96576
   397   2     3.93151    -9.82878     9.82878
   398   2     3.93151     9.82878     9.82878
   399   2     3.93151    -1.96576    13.76030
   400   2     3.93151     1.96576    13.76030
   401   2     7.86303    -5.89727    -9.82878
   402   2     7.86303    -1.96576    -9.82878
   403   2     7.86303     1.96576    -9.82878
   404   2     7.86303     5.89727    -9.82878
   405   2     7.86303    -9.82878    -5.89727
   406   2     7.86303     9.82878    -5.89727
   407   2     7.86303    -9.82878    -1.96576
   408   2     7.86303     9.82878    -1.96576
   409   2     7.86303    -9.82878     1.96576
   410   2     7.86303     9.82878     1.96576
   411   2     7.86303    -9.82878     5.89727
   412   2     7.86303     9.82878     5.89727
   413   2     7.86303    -5.89727     9.82878
   414   2     7.86303    -1.96576     9.82878
   415   2     7.86303     1.96576     9.82878
   416   2     7.86303     5.89727     9.82878
   417   2    11.79454    -5.89727    -5.89727
   418   2    11.79454    -1.96576    -5.89727
   419   2    11.79454     1.96576    -5.89727
   420   2    11.79454     5.89727    -5.89727
   421   2    11.79454    -5.89727    -1.96576
   422   2    11.79454     5.89727    -1.96576
   423   2    11.79454    -5.89727     1.96576
   424   2    11.79454     5.89727     1.96576
   425   2    11.79454    -5.89727     5.89727
   426   2    11.79454    -1.96576     5.89727
   427   2    11.79454     1.96576     5.89727
   428   2    11.79454     5.89727     5.89727
   429   1     0.00000     0.00000   -10.56418
   430   1    -3.52139    -7.04278    -7.04278
   431   1     0.00000    -7.04278    -7.04278
   432   1     3.52139    -7.04278    -7.04278
   433   1    -7.04278    -3.52139    -7.04278
   434   1    -3.52139    -3.52139    -7.04278
   435   1     0.00000    -3.52139    -7.04278
   436   1     3.52139    -3.52139    -7.04278
   437   1     7.04278    -3.52139    -7.04278
   438   1    -7.04278     0.00000    -7.04278
   439   1    -3.52139     0.00000    -7.04278
   440   1     0.00000     0.00000    -7.04278
   441   1     3.52139     0.00000    -7.04278
   442   1     7.04278     0.00000    -7.04278
   443   1    -7.04278     3.52139    -7.04278
   444   1    -3.52139     3.52139    -7.04278
   445   1     0.00000     3.52139    -7.04278
   446   1     3.52139     3.52139    -7.04278
   447   1     7.04278     3.52139    -7.04278
   448   1    -3.52139     7.04278    -7.04278
   449   1     0.00000     7.04278    -7.04278
   450   1     3.52139     7.04278    -7.04278
   451   1    -7.04278    -7.04278    -3.52139
   452   1    -3.52139    -7.04278    -3.52139
   453   1     0.00000    -7.04278    -3.52139
   454   1     3.52139    -7.04278    -3.52139
   455   1     7.04278    -7.04278    -3.52139
   456   1    -7.04278    -3.52139    -3.52139
   457   1    -3.52139    -3.52139    -3.52139
   458   1     0.00000    -3.52139    -3.52139
   459   1     3.52139    -3.52139    -3.52139
   460   1     7.04278    -3.52139    -3.52139
   461   1    -7.04278     0.00000    -3.52139
   462   1    -3.52139     0.00000    -3.52139
   463   1     0.00000     0.00000    -3.52139
   464   1     3.52139     0.00000    -3.52139
   465   1     7.04278     0.00000    -3.52139
   466   1    -7.04278     3.52139    -3.52139
   467   1    -3.52139     3.52139    -3.52139
   468   1     0.00000     3.52139    -3.52139
   469   1     3.52139     3.52139    -3.52139
   470   1     7.04278     3.52139    -3.52139
   471   1    -7.04278     7.04278    -3.52139
   472   1    -3.52139     7.04278    -3.52139
   473   1     0.00000     7.04278    -3.52139
   474   1     3.52139     7.04278    -3.52139
   475   1     7.04278     7.04278    -3.52139
   476   1     0.00000   -10.56418     0.00000
   477   1    -7.04278    -7.04278     0.00000
   478   1    -3.52139    -7.04278     0.00000
   479   1     0.00000    -7.04278     0.00000
   480   1     3.52139    -7.04278     0.00000
   481   1     7.04278    -7.04278     0.00000
   482   1    -7.04278    -3.52139     0.00000
   483   1    -3.52139    -3.52139     0.00000
   484   1     0.00000    -3.52139     0.00000
   485   1     3.52139    -3.52139     0.00000
   486   1     7.04278    -3.52139     0.00000
   487   1   -10.56418     0.00000     0.00000
   488   1    -7.04278     0.00000     0.00000
   489   1    -3.52139     0.00000     0.00000
   490   1     0.00000     0.00000     0.00000
   491   1     3.52139     0.00000     0.00000
   492   1     7.04278     0.00000     0.00000
   493   1    10.56418     0.00000     0.00000
   494   1    -7.04278     3.52139     0.00000
   495   1    -3.52139     3.52139     0.00000
   496   1     0.00000     3.52139     0.00000
   497   1     3.52139     3.52139     0.00000
   498   1     7.04278     3.52139     0.00000
   499   1    -7.04278     7.04278     0.00000
   500   1    -3.52139     7.04278     0.00000
   501   1     0.00000     7.04278     0.00000
   502   1     3.52139     7.04278     0.00000
   503   1     7.04278     7.04278     0.00000
   504   1     0.00000    10.56418     0.00000
   505   1    -7.04278    -7.04278     3.52139
   506   1    -3.52139    -7.04278     3.52139
   507   1     0.00000    -7.04278     3.52139
   508   1     3.52139    -7.04278     3.52139
   509   1     7.04278    -7.04278     3.52139
   510   1    -7.04278    -3.52139     3.52139
   511   1    -3.52139    -3.52139     3.52139
   512   1     0.00000    -3.52139     3.52139
   513   1     3.52139    -3.52139     3.52139
   514   1     7.04278    -3.52139     3.52139
   515   1    -7.04278     0.00000     3.52139
   516   1    -3.52139     0.00000     3.52139
   517   1     0.00000     0.00000     3.52139
   518   1     3.52139     0.00000     3.52139
   519   1     7.04278     0.00000     3.52139
   520   1    -7.04278     3.52139     3.52139
   521   1    -3.52139     3.52139     3.52139
   522   1     0.00000     3.52139     3.52139
   523   1     3.52139     3.52139     3.52139
   524   1     7.04278     3.52139     3.52139
   525   1    -7.04278     7.04278     3.52139
   526   1    -3.52139     7.04278     3.52139
   527   1     0.00000     7.04278     3.52139
   528   1     3.52139     7.04278     3.52139
   529   1     7.04278     7.04278     3.52139
   530   1    -3.52139    -7.04278     7.04278
   531   1     0.00000    -7.04278     7.04278
   532   1     3.52139    -7.04278     7.04278
   533   1    -7.04278    -3.52139     7.04278
   534   1    -3.52139    -3.52139     7.04278
   535   1     0.00000    -3.52139     7.04278
   536   1     3.52139    -3.52139     7.04278
   537   1     7.04278    -3.52139     7.04278
   538   1    -7.04278     0.00000     7.04278
   539   1    -3.52139     0.00000     7.04278
   540   1     0.00000     0.00000     7.04278
   541   1     3.52139     0.00000     7.04278
   542   1     7.04278     0.00000     7.04278
   543   1    -7.04278     3.52139     7.04278
   544   1    -3.52139     3.52139     7.04278
   545   1     0.00000     3.52139     7.04278
   546   1     3.52139     3.52139     7.04278
   547   1     7.04278     3.52139     7.04278
   548   1    -3.52139     7.04278     7.04278
   549   1     0.00000     7.04278     7.04278
   550   1     3.52139     7.04278     7.04278
   551   1     0.00000     0.00000    10.56418
   552   1    -5.28209    -5.28209    -7.04278
   553   1    -1.76070    -5.28209    -7.04278
   554   1     1.76070    -5.28209    -7.04278
   555   1     5.28209    -5.28209    -7.04278
   556   1    -5.28209    -1.76070    -7.04278
   557   1    -1.76070    -1.76070    -7.04278
   558   1     1.76070    -1.76070    -7.04278
   559   1     5.28209    -1.76070    -7.04278
   560   1    -5.28209     1.76070    -7.04278
   561   1    -1.76070     1.76070    -7.04278
   562   1     1.76070     1.76070    -7.04278
   563   1     5.28209     1.76070    -7.04278
   564   1    -5.28209     5.28209    -7.04278
   565   1    -1.76070     5.28209    -7.04278
   566   1     1.76070     5.28209    -7.04278
   567   1     5.28209     5.28209    -7.04278
   568   1    -1.76070    -8.80348    -3.52139
   569   1     1.76070    -8.80348    -3.52139
   570   1    -5.28209    -5.28209    -3.52139
   571   1    -1.76070    -5.28209    -3.52139
   572   1     1.76070    -5.28209    -3.52139
   573   1     5.28209    -5.28209    -3.52139
   574   1    -8.80348    -1.76070    -3.52139
   575   1    -5.28209    -1.76070    -3.52139
   576   1    -1.76070    -1.76070    -3.52139
   577   1     1.76070    -1.76070    -3.52139
   578   1     5.28209    -1.76070    -3.52139
   579   1     8.80348    -1.76070    -3.52139
   580   1    -8.80348     1.76070    -3.52139
   581   1    -5.28209     1.76070    -3.52139
   582   1    -1.76070     1.76070    -3.52139
   583   1     1.76070     1.76070    -3.52139
   584   1     5.28209     1.76070    -3.52139
   585   1     8.80348     1.76070    -3.52139
   586   1    -5.28209     5.28209    -3.52139
   587   1    -1.76070     5.28209    -3.52139
   588   1     1.76070     5.28209    -3.52139
   589   1     5.28209     5.28209    -3.52139
   590   1    -1.76070     8.80348    -3.52139
   591   1     1.76070     8.80348    -3.52139
   592   1    -5.28209    -8.80348     0.00000
   593   1    -1.76070    -8.80348     0.00000
   594   1     1.76070    -8.80348     0.00000
   595   1     5.28209    -8.80348     0.00000
   596   1    -8.80348    -5.28209     0.00000
   597   1    -5.28209    -5.28209     0.00000
   598   1    -1.76070    -5.28209     0.00000
   599   1     1.76070    -5.28209     0.00000
   600   1     5.28209    -5.28209     0.00000
   601   1     8.80348    -5.28209     0.00000
   602   1    -8.80348    -1.76070     0.00000
   603   1    -5.28209    -1.76070     0.00000
   604   1    -1.76070    -1.76070     0.00000
   605   1     1.76070    -1.76070     0.00000
   606   1     5.28209    -1.76070     0.00000
   607   1     8.80348    -1.76070     0.00000
   608   1    -8.80348     1.76070     0.00000
   609   1    -5.28209     1.76070     0.00000
   610   1    -1.76070     1.76070     0.00000
   611   1     1.76070     1.76070     0.00000
   612   1     5.28209     1.76070     0.00000
   613   1     8.80348     1.76070     0.00000
   614   1    -8.80348     5.28209     0.00000
   615   1    -5.28209     5.28209     0.00000
   616   1    -1.76070     5.28209     0.00000
   617   1     1.76070     5.28209     0.00000
   618   1     5.28209     5.28209     0.00000
   619   1     8.80348     5.28209     0.00000
   620   1    -5.28209     8.80348     0.00000
   621   1    -1.76070     8.80348     0.00000
   622   1     1.76070     8.80348     0.00000
   623   1     5.28209     8.80348     0.00000
   624   1    -1.76070    -8.80348     3.52139
   625   1     1.76070    -8.80348     3.52139
   626   1    -5.28209    -5.28209     3.52139
   627   1    -1.76070    -5.28209     3.52139
   628   1     1.76070    -5.28209     3.52139
   629   1     5.28209    -5.28209     3.52139
   630   1    -8.80348    -1.76070     3.52139
   631   1    -5.28209    -1.76070     3.52139
   632   1    -1.76070    -1.76070     3.52139
   633   1     1.76070    -1.76070     3.52139
   634   1     5.28209    -1.76070     3.52139