LAMMPS DATA FOR MEAM SIMULATION

   1451   atoms
      2   atom types

  -26.97   26.97   xlo xhi
  -26.97   26.97   ylo yhi
  -26.97   26.97   zlo zhi

 Atoms

     1   2     0.00000     0.00000   -16.97056
     2   2    -4.24264    -8.48528   -12.72792
     3   2     0.00000    -8.48528   -12.72792
     4   2     4.24264    -8.48528   -12.72792
     5   2    -8.48528    -4.24264   -12.72792
     6   2     8.48528    -4.24264   -12.72792
     7   2    -8.48528     0.00000   -12.72792
     8   2     8.48528     0.00000   -12.72792
     9   2    -8.48528     4.24264   -12.72792
    10   2     8.48528     4.24264   -12.72792
    11   2    -4.24264     8.48528   -12.72792
    12   2     0.00000     8.48528   -12.72792
    13   2     4.24264     8.48528   -12.72792
    14   2    -4.24264   -12.72792    -8.48528
    15   2     0.00000   -12.72792    -8.48528
    16   2     4.24264   -12.72792    -8.48528
    17   2   -12.72792    -4.24264    -8.48528
    18   2    12.72792    -4.24264    -8.48528
    19   2   -12.72792     0.00000    -8.48528
    20   2    12.72792     0.00000    -8.48528
    21   2   -12.72792     4.24264    -8.48528
    22   2    12.72792     4.24264    -8.48528
    23   2    -4.24264    12.72792    -8.48528
    24   2     0.00000    12.72792    -8.48528
    25   2     4.24264    12.72792    -8.48528
    26   2    -8.48528   -12.72792    -4.24264
    27   2     8.48528   -12.72792    -4.24264
    28   2   -12.72792    -8.48528    -4.24264
    29   2    12.72792    -8.48528    -4.24264
    30   2   -12.72792     8.48528    -4.24264
    31   2    12.72792     8.48528    -4.24264
    32   2    -8.48528    12.72792    -4.24264
    33   2     8.48528    12.72792    -4.24264
    34   2     0.00000   -16.97056     0.00000
    35   2    -8.48528   -12.72792     0.00000
    36   2     8.48528   -12.72792     0.00000
    37   2   -12.72792    -8.48528     0.00000
    38   2    12.72792    -8.48528     0.00000
    39   2   -16.97056     0.00000     0.00000
    40   2    16.97056     0.00000     0.00000
    41   2   -12.72792     8.48528     0.00000
    42   2    12.72792     8.48528     0.00000
    43   2    -8.48528    12.72792     0.00000
    44   2     8.48528    12.72792     0.00000
    45   2     0.00000    16.97056     0.00000
    46   2    -8.48528   -12.72792     4.24264
    47   2     8.48528   -12.72792     4.24264
    48   2   -12.72792    -8.48528     4.24264
    49   2    12.72792    -8.48528     4.24264
    50   2   -12.72792     8.48528     4.24264
    51   2    12.72792     8.48528     4.24264
    52   2    -8.48528    12.72792     4.24264
    53   2     8.48528    12.72792     4.24264
    54   2    -4.24264   -12.72792     8.48528
    55   2     0.00000   -12.72792     8.48528
    56   2     4.24264   -12.72792     8.48528
    57   2   -12.72792    -4.24264     8.48528
    58   2    12.72792    -4.24264     8.48528
    59   2   -12.72792     0.00000     8.48528
    60   2    12.72792     0.00000     8.48528
    61   2   -12.72792     4.24264     8.48528
    62   2    12.72792     4.24264     8.48528
    63   2    -4.24264    12.72792     8.48528
    64   2     0.00000    12.72792     8.48528
    65   2     4.24264    12.72792     8.48528
    66   2    -4.24264    -8.48528    12.72792
    67   2     0.00000    -8.48528    12.72792
    68   2     4.24264    -8.48528    12.72792
    69   2    -8.48528    -4.24264    12.72792
    70   2     8.48528    -4.24264    12.72792
    71   2    -8.48528     0.00000    12.72792
    72   2     8.48528     0.00000    12.72792
    73   2    -8.48528     4.24264    12.72792
    74   2     8.48528     4.24264    12.72792
    75   2    -4.24264     8.48528    12.72792
    76   2     0.00000     8.48528    12.72792
    77   2     4.24264     8.48528    12.72792
    78   2     0.00000     0.00000    16.97056
    79   2    -2.12132   -10.60660   -12.72792
    80   2     2.12132   -10.60660   -12.72792
    81   2    -6.36396    -6.36396   -12.72792
    82   2     6.36396    -6.36396   -12.72792
    83   2   -10.60660    -2.12132   -12.72792
    84   2    10.60660    -2.12132   -12.72792
    85   2   -10.60660     2.12132   -12.72792
    86   2    10.60660     2.12132   -12.72792
    87   2    -6.36396     6.36396   -12.72792
    88   2     6.36396     6.36396   -12.72792
    89   2    -2.12132    10.60660   -12.72792
    90   2     2.12132    10.60660   -12.72792
    91   2    -6.36396   -14.84924    -4.24264
    92   2    -2.12132   -14.84924    -4.24264
    93   2     2.12132   -14.84924    -4.24264
    94   2     6.36396   -14.84924    -4.24264
    95   2   -10.60660   -10.60660    -4.24264
    96   2    10.60660   -10.60660    -4.24264
    97   2   -14.84924    -6.36396    -4.24264
    98   2    14.84924    -6.36396    -4.24264
    99   2   -14.84924    -2.12132    -4.24264
   100   2    14.84924    -2.12132    -4.24264
   101   2   -14.84924     2.12132    -4.24264
   102   2    14.84924     2.12132    -4.24264
   103   2   -14.84924     6.36396    -4.24264
   104   2    14.84924     6.36396    -4.24264
   105   2   -10.60660    10.60660    -4.24264
   106   2    10.60660    10.60660    -4.24264
   107   2    -6.36396    14.84924    -4.24264
   108   2    -2.12132    14.84924    -4.24264
   109   2     2.12132    14.84924    -4.24264
   110   2     6.36396    14.84924    -4.24264
   111   2    -6.36396   -14.84924     0.00000
   112   2     6.36396   -14.84924     0.00000
   113   2   -14.84924    -6.36396     0.00000
   114   2    14.84924    -6.36396     0.00000
   115   2   -14.84924     6.36396     0.00000
   116   2    14.84924     6.36396     0.00000
   117   2    -6.36396    14.84924     0.00000
   118   2     6.36396    14.84924     0.00000
   119   2    -6.36396   -14.84924     4.24264
   120   2    -2.12132   -14.84924     4.24264
   121   2     2.12132   -14.84924     4.24264
   122   2     6.36396   -14.84924     4.24264
   123   2   -10.60660   -10.60660     4.24264
   124   2    10.60660   -10.60660     4.24264
   125   2   -14.84924    -6.36396     4.24264
   126   2    14.84924    -6.36396     4.24264
   127   2   -14.84924    -2.12132     4.24264
   128   2    14.84924    -2.12132     4.24264
   129   2   -14.84924     2.12132     4.24264
   130   2    14.84924     2.12132     4.24264
   131   2   -14.84924     6.36396     4.24264
   132   2    14.84924     6.36396     4.24264
   133   2   -10.60660    10.60660     4.24264
   134   2    10.60660    10.60660     4.24264
   135   2    -6.36396    14.84924     4.24264
   136   2    -2.12132    14.84924     4.24264
   137   2     2.12132    14.84924     4.24264
   138   2     6.36396    14.84924     4.24264
   139   2    -2.12132   -10.60660    12.72792
   140   2     2.12132   -10.60660    12.72792
   141   2    -6.36396    -6.36396    12.72792
   142   2     6.36396    -6.36396    12.72792
   143   2   -10.60660    -2.12132    12.72792
   144   2    10.60660    -2.12132    12.72792
   145   2   -10.60660     2.12132    12.72792
   146   2    10.60660     2.12132    12.72792
   147   2    -6.36396     6.36396    12.72792
   148   2     6.36396     6.36396    12.72792
   149   2    -2.12132    10.60660    12.72792
   150   2     2.12132    10.60660    12.72792
   151   2    -2.12132   -12.72792   -10.60660
   152   2     2.12132   -12.72792   -10.60660
   153   2    -6.36396   -12.72792    -6.36396
   154   2     6.36396   -12.72792    -6.36396
   155   2   -10.60660   -12.72792    -2.12132
   156   2    10.60660   -12.72792    -2.12132
   157   2   -10.60660   -12.72792     2.12132
   158   2    10.60660   -12.72792     2.12132
   159   2    -6.36396   -12.72792     6.36396
   160   2     6.36396   -12.72792     6.36396
   161   2    -2.12132   -12.72792    10.60660
   162   2     2.12132   -12.72792    10.60660
   163   2    -6.36396    -4.24264   -14.84924
   164   2    -2.12132    -4.24264   -14.84924
   165   2     2.12132    -4.24264   -14.84924
   166   2     6.36396    -4.24264   -14.84924
   167   2   -10.60660    -4.24264   -10.60660
   168   2    10.60660    -4.24264   -10.60660
   169   2   -14.84924    -4.24264    -6.36396
   170   2    14.84924    -4.24264    -6.36396
   171   2   -14.84924    -4.24264    -2.12132
   172   2    14.84924    -4.24264    -2.12132
   173   2   -14.84924    -4.24264     2.12132
   174   2    14.84924    -4.24264     2.12132
   175   2   -14.84924    -4.24264     6.36396
   176   2    14.84924    -4.24264     6.36396
   177   2   -10.60660    -4.24264    10.60660
   178   2    10.60660    -4.24264    10.60660
   179   2    -6.36396    -4.24264    14.84924
   180   2    -2.12132    -4.24264    14.84924
   181   2     2.12132    -4.24264    14.84924
   182   2     6.36396    -4.24264    14.84924
   183   2    -6.36396     0.00000   -14.84924
   184   2     6.36396     0.00000   -14.84924
   185   2   -14.84924     0.00000    -6.36396
   186   2    14.84924     0.00000    -6.36396
   187   2   -14.84924     0.00000     6.36396
   188   2    14.84924     0.00000     6.36396
   189   2    -6.36396     0.00000    14.84924
   190   2     6.36396     0.00000    14.84924
   191   2    -6.36396     4.24264   -14.84924
   192   2    -2.12132     4.24264   -14.84924
   193   2     2.12132     4.24264   -14.84924
   194   2     6.36396     4.24264   -14.84924
   195   2   -10.60660     4.24264   -10.60660
   196   2    10.60660     4.24264   -10.60660
   197   2   -14.84924     4.24264    -6.36396
   198   2    14.84924     4.24264    -6.36396
   199   2   -14.84924     4.24264    -2.12132
   200   2    14.84924     4.24264    -2.12132
   201   2   -14.84924     4.24264     2.12132
   202   2    14.84924     4.24264     2.12132
   203   2   -14.84924     4.24264     6.36396
   204   2    14.84924     4.24264     6.36396
   205   2   -10.60660     4.24264    10.60660
   206   2    10.60660     4.24264    10.60660
   207   2    -6.36396     4.24264    14.84924
   208   2    -2.12132     4.24264    14.84924
   209   2     2.12132     4.24264    14.84924
   210   2     6.36396     4.24264    14.84924
   211   2    -2.12132    12.72792   -10.60660
   212   2     2.12132    12.72792   -10.60660
   213   2    -6.36396    12.72792    -6.36396
   214   2     6.36396    12.72792    -6.36396
   215   2   -10.60660    12.72792    -2.12132
   216   2    10.60660    12.72792    -2.12132
   217   2   -10.60660    12.72792     2.12132
   218   2    10.60660    12.72792     2.12132
   219   2    -6.36396    12.72792     6.36396
   220   2     6.36396    12.72792     6.36396
   221   2    -2.12132    12.72792    10.60660
   222   2     2.12132    12.72792    10.60660
   223   2   -12.72792    -2.12132   -10.60660
   224   2   -12.72792     2.12132   -10.60660
   225   2   -12.72792    -6.36396    -6.36396
   226   2   -12.72792     6.36396    -6.36396
   227   2   -12.72792   -10.60660    -2.12132
   228   2   -12.72792    10.60660    -2.12132
   229   2   -12.72792   -10.60660     2.12132
   230   2   -12.72792    10.60660     2.12132
   231   2   -12.72792    -6.36396     6.36396
   232   2   -12.72792     6.36396     6.36396
   233   2   -12.72792    -2.12132    10.60660
   234   2   -12.72792     2.12132    10.60660
   235   2    -4.24264    -6.36396   -14.84924
   236   2    -4.24264    -2.12132   -14.84924
   237   2    -4.24264     2.12132   -14.84924
   238   2    -4.24264     6.36396   -14.84924
   239   2    -4.24264   -10.60660   -10.60660
   240   2    -4.24264    10.60660   -10.60660
   241   2    -4.24264   -14.84924    -6.36396
   242   2    -4.24264    14.84924    -6.36396
   243   2    -4.24264   -14.84924    -2.12132
   244   2    -4.24264    14.84924    -2.12132
   245   2    -4.24264   -14.84924     2.12132
   246   2    -4.24264    14.84924     2.12132
   247   2    -4.24264   -14.84924     6.36396
   248   2    -4.24264    14.84924     6.36396
   249   2    -4.24264   -10.60660    10.60660
   250   2    -4.24264    10.60660    10.60660
   251   2    -4.24264    -6.36396    14.84924
   252   2    -4.24264    -2.12132    14.84924
   253   2    -4.24264     2.12132    14.84924
   254   2    -4.24264     6.36396    14.84924
   255   2     0.00000    -6.36396   -14.84924
   256   2     0.00000     6.36396   -14.84924
   257   2     0.00000   -14.84924    -6.36396
   258   2     0.00000    14.84924    -6.36396
   259   2     0.00000   -14.84924     6.36396
   260   2     0.00000    14.84924     6.36396
   261   2     0.00000    -6.36396    14.84924
   262   2     0.00000     6.36396    14.84924
   263   2     4.24264    -6.36396   -14.84924
   264   2     4.24264    -2.12132   -14.84924
   265   2     4.24264     2.12132   -14.84924
   266   2     4.24264     6.36396   -14.84924
   267   2     4.24264   -10.60660   -10.60660
   268   2     4.24264    10.60660   -10.60660
   269   2     4.24264   -14.84924    -6.36396
   270   2     4.24264    14.84924    -6.36396
   271   2     4.24264   -14.84924    -2.12132
   272   2     4.24264    14.84924    -2.12132
   273   2     4.24264   -14.84924     2.12132
   274   2     4.24264    14.84924     2.12132
   275   2     4.24264   -14.84924     6.36396
   276   2     4.24264    14.84924     6.36396
   277   2     4.24264   -10.60660    10.60660
   278   2     4.24264    10.60660    10.60660
   279   2     4.24264    -6.36396    14.84924
   280   2     4.24264    -2.12132    14.84924
   281   2     4.24264     2.12132    14.84924
   282   2     4.24264     6.36396    14.84924
   283   2    12.72792    -2.12132   -10.60660
   284   2    12.72792     2.12132   -10.60660
   285   2    12.72792    -6.36396    -6.36396
   286   2    12.72792     6.36396    -6.36396
   287   2    12.72792   -10.60660    -2.12132
   288   2    12.72792    10.60660    -2.12132
   289   2    12.72792   -10.60660     2.12132
   290   2    12.72792    10.60660     2.12132
   291   2    12.72792    -6.36396     6.36396
   292   2    12.72792     6.36396     6.36396
   293   2    12.72792    -2.12132    10.60660
   294   2    12.72792     2.12132    10.60660
   295   1     0.00000     0.00000   -14.08557
   296   1    -3.52139    -7.04278   -10.56418
   297   1     0.00000    -7.04278   -10.56418
   298   1     3.52139    -7.04278   -10.56418
   299   1    -7.04278    -3.52139   -10.56418
   300   1    -3.52139    -3.52139   -10.56418
   301   1     0.00000    -3.52139   -10.56418
   302   1     3.52139    -3.52139   -10.56418
   303   1     7.04278    -3.52139   -10.56418
   304   1    -7.04278     0.00000   -10.56418
   305   1    -3.52139     0.00000   -10.56418
   306   1     0.00000     0.00000   -10.56418
   307   1     3.52139     0.00000   -10.56418
   308   1     7.04278     0.00000   -10.56418
   309   1    -7.04278     3.52139   -10.56418
   310   1    -3.52139     3.52139   -10.56418
   311   1     0.00000     3.52139   -10.56418
   312   1     3.52139     3.52139   -10.56418
   313   1     7.04278     3.52139   -10.56418
   314   1    -3.52139     7.04278   -10.56418
   315   1     0.00000     7.04278   -10.56418
   316   1     3.52139     7.04278   -10.56418
   317   1    -3.52139   -10.56418    -7.04278
   318   1     0.00000   -10.56418    -7.04278
   319   1     3.52139   -10.56418    -7.04278
   320   1    -7.04278    -7.04278    -7.04278
   321   1    -3.52139    -7.04278    -7.04278
   322   1     0.00000    -7.04278    -7.04278
   323   1     3.52139    -7.04278    -7.04278
   324   1     7.04278    -7.04278    -7.04278
   325   1   -10.56418    -3.52139    -7.04278
   326   1    -7.04278    -3.52139    -7.04278
   327   1    -3.52139    -3.52139    -7.04278
   328   1     0.00000    -3.52139    -7.04278
   329   1     3.52139    -3.52139    -7.04278
   330   1     7.04278    -3.52139    -7.04278
   331   1    10.56418    -3.52139    -7.04278
   332   1   -10.56418     0.00000    -7.04278
   333   1    -7.04278     0.00000    -7.04278
   334   1    -3.52139     0.00000    -7.04278
   335   1     0.00000     0.00000    -7.04278
   336   1     3.52139     0.00000    -7.04278
   337   1     7.04278     0.00000    -7.04278
   338   1    10.56418     0.00000    -7.04278
   339   1   -10.56418     3.52139    -7.04278
   340   1    -7.04278     3.52139    -7.04278
   341   1    -3.52139     3.52139    -7.04278
   342   1     0.00000     3.52139    -7.04278
   343   1     3.52139     3.52139    -7.04278
   344   1     7.04278     3.52139    -7.04278
   345   1    10.56418     3.52139    -7.04278
   346   1    -7.04278     7.04278    -7.04278
   347   1    -3.52139     7.04278    -7.04278
   348   1     0.00000     7.04278    -7.04278
   349   1     3.52139     7.04278    -7.04278
   350   1     7.04278     7.04278    -7.04278
   351   1    -3.52139    10.56418    -7.04278
   352   1     0.00000    10.56418    -7.04278
   353   1     3.52139    10.56418    -7.04278
   354   1    -7.04278   -10.56418    -3.52139
   355   1    -3.52139   -10.56418    -3.52139
   356   1     0.00000   -10.56418    -3.52139
   357   1     3.52139   -10.56418    -3.52139
   358   1     7.04278   -10.56418    -3.52139
   359   1   -10.56418    -7.04278    -3.52139
   360   1    -7.04278    -7.04278    -3.52139
   361   1    -3.52139    -7.04278    -3.52139
   362   1     0.00000    -7.04278    -3.52139
   363   1     3.52139    -7.04278    -3.52139
   364   1     7.04278    -7.04278    -3.52139
   365   1    10.56418    -7.04278    -3.52139
   366   1   -10.56418    -3.52139    -3.52139
   367   1    -7.04278    -3.52139    -3.52139
   368   1    -3.52139    -3.52139    -3.52139
   369   1     0.00000    -3.52139    -3.52139
   370   1     3.52139    -3.52139    -3.52139
   371   1     7.04278    -3.52139    -3.52139
   372   1    10.56418    -3.52139    -3.52139
   373   1   -10.56418     0.00000    -3.52139
   374   1    -7.04278     0.00000    -3.52139
   375   1    -3.52139     0.00000    -3.52139
   376   1     0.00000     0.00000    -3.52139
   377   1     3.52139     0.00000    -3.52139
   378   1     7.04278     0.00000    -3.52139
   379   1    10.56418     0.00000    -3.52139
   380   1   -10.56418     3.52139    -3.52139
   381   1    -7.04278     3.52139    -3.52139
   382   1    -3.52139     3.52139    -3.52139
   383   1     0.00000     3.52139    -3.52139
   384   1     3.52139     3.52139    -3.52139
   385   1     7.04278     3.52139    -3.52139
   386   1    10.56418     3.52139    -3.52139
   387   1   -10.56418     7.04278    -3.52139
   388   1    -7.04278     7.04278    -3.52139
   389   1    -3.52139     7.04278    -3.52139
   390   1     0.00000     7.04278    -3.52139
   391   1     3.52139     7.04278    -3.52139
   392   1     7.04278     7.04278    -3.52139
   393   1    10.56418     7.04278    -3.52139
   394   1    -7.04278    10.56418    -3.52139
   395   1    -3.52139    10.56418    -3.52139
   396   1     0.00000    10.56418    -3.52139
   397   1     3.52139    10.56418    -3.52139
   398   1     7.04278    10.56418    -3.52139
   399   1     0.00000   -14.08557     0.00000
   400   1    -7.04278   -10.56418     0.00000
   401   1    -3.52139   -10.56418     0.00000
   402   1     0.00000   -10.56418     0.00000
   403   1     3.52139   -10.56418     0.00000
   404   1     7.04278   -10.56418     0.00000
   405   1   -10.56418    -7.04278     0.00000
   406   1    -7.04278    -7.04278     0.00000
   407   1    -3.52139    -7.04278     0.00000
   408   1     0.00000    -7.04278     0.00000
   409   1     3.52139    -7.04278     0.00000
   410   1     7.04278    -7.04278     0.00000
   411   1    10.56418    -7.04278     0.00000
   412   1   -10.56418    -3.52139     0.00000
   413   1    -7.04278    -3.52139     0.00000
   414   1    -3.52139    -3.52139     0.00000
   415   1     0.00000    -3.52139     0.00000
   416   1     3.52139    -3.52139     0.00000
   417   1     7.04278    -3.52139     0.00000
   418   1    10.56418    -3.52139     0.00000
   419   1   -14.08557     0.00000     0.00000
   420   1   -10.56418     0.00000     0.00000
   421   1    -7.04278     0.00000     0.00000
   422   1    -3.52139     0.00000     0.00000
   423   1     0.00000     0.00000     0.00000
   424   1     3.52139     0.00000     0.00000
   425   1     7.04278     0.00000     0.00000
   426   1    10.56418     0.00000     0.00000
   427   1    14.08557     0.00000     0.00000
   428   1   -10.56418     3.52139     0.00000
   429   1    -7.04278     3.52139     0.00000
   430   1    -3.52139     3.52139     0.00000
   431   1     0.00000     3.52139     0.00000
   432   1     3.52139     3.52139     0.00000
   433   1     7.04278     3.52139     0.00000
   434   1    10.56418     3.52139     0.00000
   435   1   -10.56418     7.04278     0.00000
   436   1    -7.04278     7.04278     0.00000
   437   1    -3.52139     7.04278     0.00000
   438   1     0.00000     7.04278     0.00000
   439   1     3.52139     7.04278     0.00000
   440   1     7.04278     7.04278     0.00000
   441   1    10.56418     7.04278     0.00000
   442   1    -7.04278    10.56418     0.00000
   443   1    -3.52139    10.56418     0.00000
   444   1     0.00000    10.56418     0.00000
   445   1     3.52139    10.56418     0.00000
   446   1     7.04278    10.56418     0.00000
   447   1     0.00000    14.08557     0.00000
   448   1    -7.04278   -10.56418     3.52139
   449   1    -3.52139   -10.56418     3.52139
   450   1     0.00000   -10.56418     3.52139
   451   1     3.52139   -10.56418     3.52139
   452   1     7.04278   -10.56418     3.52139
   453   1   -10.56418    -7.04278     3.52139
   454   1    -7.04278    -7.04278     3.52139
   455   1    -3.52139    -7.04278     3.52139
   456   1     0.00000    -7.04278     3.52139
   457   1     3.52139    -7.04278     3.52139
   458   1     7.04278    -7.04278     3.52139
   459   1    10.56418    -7.04278     3.52139
   460   1   -10.56418    -3.52139     3.52139
   461   1    -7.04278    -3.52139     3.52139
   462   1    -3.52139    -3.52139     3.52139
   463   1     0.00000    -3.52139     3.52139
   464   1     3.52139    -3.52139     3.52139
   465   1     7.04278    -3.52139     3.52139
   466   1    10.56418    -3.52139     3.52139
   467   1   -10.56418     0.00000     3.52139
   468   1    -7.04278     0.00000     3.52139
   469   1    -3.52139     0.00000     3.52139
   470   1     0.00000     0.00000     3.52139
   471   1     3.52139     0.00000     3.52139
   472   1     7.04278     0.00000     3.52139
   473   1    10.56418     0.00000     3.52139
   474   1   -10.56418     3.52139     3.52139
   475   1    -7.04278     3.52139     3.52139
   476   1    -3.52139     3.52139     3.52139
   477   1     0.00000     3.52139     3.52139
   478   1     3.52139     3.52139     3.52139
   479   1     7.04278     3.52139     3.52139
   480   1    10.56418     3.52139     3.52139
   481   1   -10.56418     7.04278     3.52139
   482   1    -7.04278     7.04278     3.52139
   483   1    -3.52139     7.04278     3.52139
   484   1     0.00000     7.04278     3.52139
   485   1     3.52139     7.04278     3.52139
   486   1     7.04278     7.04278     3.52139
   487   1    10.56418     7.04278     3.52139
   488   1    -7.04278    10.56418     3.52139
   489   1    -3.52139    10.56418     3.52139
   490   1     0.00000    10.56418     3.52139
   491   1     3.52139    10.56418     3.52139
   492   1     7.04278    10.56418     3.52139
   493   1    -3.52139   -10.56418     7.04278
   494   1     0.00000   -10.56418     7.04278
   495   1     3.52139   -10.56418     7.04278
   496   1    -7.04278    -7.04278     7.04278
   497   1    -3.52139    -7.04278     7.04278
   498   1     0.00000    -7.04278     7.04278
   499   1     3.52139    -7.04278     7.04278
   500   1     7.04278    -7.04278     7.04278
   501   1   -10.56418    -3.52139     7.04278
   502   1    -7.04278    -3.52139     7.04278
   503   1    -3.52139    -3.52139     7.04278
   504   1     0.00000    -3.52139     7.04278
   505   1     3.52139    -3.52139     7.04278
   506   1     7.04278    -3.52139     7.04278
   507   1    10.56418    -3.52139     7.04278
   508   1   -10.56418     0.00000     7.04278
   509   1    -7.04278     0.00000     7.04278
   510   1    -3.52139     0.00000     7.04278
   511   1     0.00000     0.00000     7.04278
   512   1     3.52139     0.00000     7.04278
   513   1     7.04278     0.00000     7.04278
   514   1    10.56418     0.00000     7.04278
   515   1   -10.56418     3.52139     7.04278
   516   1    -7.04278     3.52139     7.04278
   517   1    -3.52139     3.52139     7.04278
   518   1     0.00000     3.52139     7.04278
   519   1     3.52139     3.52139     7.04278
   520   1     7.04278     3.52139     7.04278
   521   1    10.56418     3.52139     7.04278
   522   1    -7.04278     7.04278     7.04278
   523   1    -3.52139     7.04278     7.04278
   524   1     0.00000     7.04278     7.04278
   525   1     3.52139     7.04278     7.04278
   526   1     7.04278     7.04278     7.04278
   527   1    -3.52139    10.56418     7.04278
   528   1     0.00000    10.56418     7.04278
   529   1     3.52139    10.56418     7.04278
   530   1    -3.52139    -7.04278    10.56418
   531   1     0.00000    -7.04278    10.56418
   532   1     3.52139    -7.04278    10.56418
   533   1    -7.04278    -3.52139    10.56418
   534   1    -3.52139    -3.52139    10.56418
   535   1     0.00000    -3.52139    10.56418
   536   1     3.52139    -3.52139    10.56418
   537   1     7.04278    -3.52139    10.56418
   538   1    -7.04278     0.00000    10.56418
   539   1    -3.52139     0.00000    10.56418
   540   1     0.00000     0.00000    10.56418
   541   1     3.52139     0.00000    10.56418
   542   1     7.04278     0.00000    10.56418
   543   1    -7.04278     3.52139    10.56418
   544   1    -3.52139     3.52139    10.56418
   545   1     0.00000     3.52139    10.56418
   546   1     3.52139     3.52139    10.56418
   547   1     7.04278     3.52139    10.56418
   548   1    -3.52139     7.04278    10.56418
   549   1     0.00000     7.04278    10.56418
   550   1     3.52139     7.04278    10.56418
   551   1     0.00000     0.00000    14.08557
   552   1    -1.76070    -1.76070   -14.08557
   553   1     1.76070    -1.76070   -14.08557
   554   1    -1.76070     1.76070   -14.08557
   555   1     1.76070     1.76070   -14.08557
   556   1    -1.76070    -8.80348   -10.56418
   557   1     1.76070    -8.80348   -10.56418
   558   1    -5.28209    -5.28209   -10.56418
   559   1    -1.76070    -5.28209   -10.56418
   560   1     1.76070    -5.28209   -10.56418
   561   1     5.28209    -5.28209   -10.56418
   562   1    -8.80348    -1.76070   -10.56418
   563   1    -5.28209    -1.76070   -10.56418
   564   1    -1.76070    -1.76070   -10.56418
   565   1     1.76070    -1.76070   -10.56418
   566   1     5.28209    -1.76070   -10.56418
   567   1     8.80348    -1.76070   -10.56418
   568   1    -8.80348     1.76070   -10.56418
   569   1    -5.28209     1.76070   -10.56418
   570   1    -1.76070     1.76070   -10.56418
   571   1     1.76070     1.76070   -10.56418
   572   1     5.28209     1.76070   -10.56418
   573   1     8.80348     1.76070   -10.56418
   574   1    -5.28209     5.28209   -10.56418
   575   1    -1.76070     5.28209   -10.56418
   576   1     1.76070     5.28209   -10.56418
   577   1     5.28209     5.28209   -10.56418
   578   1    -1.76070     8.80348   -10.56418
   579   1     1.76070     8.80348   -10.56418
   580   1    -1.76070   -12.32487    -7.04278
   581   1     1.76070   -12.32487    -7.04278
   582   1    -8.80348    -8.80348    -7.04278
   583   1    -5.28209    -8.80348    -7.04278
   584   1    -1.76070    -8.80348    -7.04278
   585   1     1.76070    -8.80348    -7.04278
   586   1     5.28209    -8.80348    -7.04278
   587   1     8.80348    -8.80348    -7.04278
   588   1    -8.80348    -5.28209    -7.04278
   589   1    -5.28209    -5.28209    -7.04278
   590   1    -1.76070    -5.28209    -7.04278
   591   1     1.76070    -5.28209    -7.04278
   592   1     5.28209    -5.28209    -7.04278
   593   1     8.80348    -5.28209    -7.04278
   594   1   -12.32487    -1.76070    -7.04278
   595   1    -8.80348    -1.76070    -7.04278
   596   1    -5.28209    -1.76070    -7.04278
   597   1    -1.76070    -1.76070    -7.04278
   598   1     1.76070    -1.76070    -7.04278
   599   1     5.28209    -1.76070    -7.04278
   600   1     8.80348    -1.76070    -7.04278
   601   1    12.32487    -1.76070    -7.04278
   602   1   -12.32487     1.76070    -7.04278
   603   1    -8.80348     1.76070    -7.04278
   604   1    -5.28209     1.76070    -7.04278
   605   1    -1.76070     1.76070    -7.04278
   606   1     1.76070     1.76070    -7.04278
   607   1     5.28209     1.76070    -7.04278
   608   1     8.80348     1.76070    -7.04278
   609   1    12.32487     1.76070    -7.04278
   610   1    -8.80348     5.28209    -7.04278
   611   1    -5.28209     5.28209    -7.04278
   612   1    -1.76070     5.28209    -7.04278
   613   1     1.76070     5.28209    -7.04278
   614   1     5.28209     5.28209    -7.04278
   615   1     8.80348     5.28209    -7.04278
   616   1    -8.80348     8.80348    -7.04278
   617   1    -5.28209     8.80348    -7.04278
   618   1    -1.76070     8.80348    -7.04278
   619   1     1.76070     8.80348    -7.04278
   620   1     5.28209     8.80348    -7.04278
   621   1     8.80348     8.80348    -7.04278
   622   1    -1.76070    12.32487    -7.04278
   623   1     1.76070    12.32487    -7.04278
   624   1    -5.28209   -12.32487    -3.52139
   625   1    -1.76070   -12.32487    -3.52139
   626   1     1.76070   -12.32487    -3.52139
   627   1     5.28209   -12.32487    -3.52139
   628   1    -8.80348    -8.80348    -3.52139
   629   1    -5.28209    -8.80348    -3.52139
   630   1    -1.76070    -8.80348    -3.52139
   631   1     1.76070    -8.80348    -3.52139
   632   1     5.28209    -8.80348    -3.52139
   633   1     8.80348    -8.80348    -3.52139
   634   1   -12.32487    -5.28209    -3.52139