1296
 Atoms. Timestep: 500
2 -0.0713601 -8.26576 -12.4953
2 4.25454 -7.21894 -10.6611
2 -8.18821 -0.264101 -12.4312
2 8.22983 0.801706 -10.7457
2 -8.49349 3.89356 -12.6976
2 15.335 22.7492 -26.0321
2 3.30045 7.79484 -12.4082
2 -4.7638 -11.8928 -7.91028
2 0.22604 -12.9287 -8.17623
2 2.79614 -13.5683 -8.25278
2 -12.056 -3.35267 -8.47638
2 11.4753 -3.90541 -7.67682
2 -11.7235 0.291109 -8.47655
2 11.7363 0.184771 -9.03702
2 0.107613 10.492 -8.08785
2 -9.54014 -10.3597 -4.38965
2 6.36927 -9.04358 -2.15143
2 -12.0654 -7.16917 -3.94811
2 11.341 -7.21101 -4.79368
2 -12.6144 7.74691 -3.82877
2 12.835 6.96842 -4.12018
2 -8.08671 9.73663 -4.57362
2 -8.47924 -11.6733 0.205178
2 25.5743 -2.27406 22.0202
2 -12.897 -8.49725 0.185366
2 -13.4276 6.37549 0.455542
2 11.7559 8.8119 0.421716
2 -8.27187 11.528 -0.222201
2 7.71772 12.7275 0.420292
2 -8.88578 -11.996 4.75041
2 8.27645 -11.8318 2.19092
2 -9.6257 -6.97084 2.89443
2 -11.0871 8.64953 6.63453
2 11.647 8.14963 3.91071
2 -7.73069 11.228 3.58055
2 7.13108 11.013 4.71128
2 -5.2626 -12.1091 8.62865
2 -0.594008 -11.6175 9.10176
2 3.44428 -11.3759 8.42068
2 13.3601 10.1869 3.97722
2 -12.5809 -0.489905 7.77537
2 -10.2419 4.98306 8.94094
2 11.6423 2.56563 9.06727
2 -0.047718 11.696 8.26788
2 3.55213 12.3671 8.40291
2 0.661177 -8.997 12.5823
2 3.14629 -8.26441 12.9974
2 -9.56499 -3.94539 11.8549
2 7.72425 -4.07405 10.722
2 -7.05766 -1.05614 -24.7134
2 9.25493 -0.579826 11.4796
2 -7.83184 3.66009 12.7412
2 8.33711 3.52909 12.2445
2 -5.07634 8.34678 12.0618
2 -0.284569 8.44151 12.296
2 4.17407 9.12226 12.4432
2 -1.30346 -10.4167 -11.5979
2 2.52382 -8.7267 -12.1219
2 -7.55127 -4.55144 -13.3995
2 -9.68521 -2.27906 -11.4912
2 8.52937 -1.82374 -11.0971
2 -9.44746 1.68923 -13.7613
2 -6.75969 5.41444 -11.3477
2 2.15355 10.1309 -12.722
2 -7.75495 -12.4584 -4.4229
2 -3.73988 -13.7954 -3.92348
2 3.33588 -14.2904 -4.39404
2 5.65354 -12.8716 -3.8587
2 -10.7287 -8.87069 -2.25587
2 8.86506 -8.6017 0.752824
2 -13.5753 -4.99377 -3.0022
2 12.91 -5.23545 -5.78527
2 -12.7069 -2.81852 -4.56292
2 22.2399 -12.174 -0.312712
2 -13.4916 5.44537 -4.39004
2 -10.255 9.42412 -3.48683
2 -6.73444 11.9196 -5.29931
2 -1.08048 14.2784 -1.42613
2 1.17384 13.1813 -5.2849
2 6.04765 13.5858 -3.93412
2 -24.8726 14.2307 6.71372
2 13.521 6.71997 0.567365
2 -6.37089 -12.8158 4.63978
2 -2.1676 -14.1421 3.59676
2 1.7367 -11.7784 3.3817
2 6.33102 -11.9003 4.02304
2 -9.01313 -9.40452 3.81729
2 -13.0645 -5.1057 3.15859
2 14.125 -13.705 7.93637
2 -13.1948 -2.51315 4.12831
2 12.8404 -2.49348 4.71755
2 -13.5247 2.72833 5.24447
2 13.9216 1.92547 4.89828
2 13.3249 6.31435 3.30294
2 -9.62893 9.57188 4.58096
2 8.99751 9.30395 3.69565
2 -23.1524 18.5533 -11.1002
2 -1.67858 13.0539 4.55723
2 5.97792 13.3962 4.5747
2 -3.07038 -10.4149 11.5029
2 -7.12158 -5.03058 12.5582
2 5.97965 -5.97898 11.3331
2 10.137 -2.98678 10.6966
2 -9.50788 1.60349 12.9056
2 10.3535 1.96763 11.3876
2 -6.5222 5.95155 12.217
2 6.12223 7.4916 11.5633
2 1.7316 10.1871 12.1602
2 -2.32199 -13.548 -8.65777
2 -7.12563 -11.2435 -6.73711
2 5.64272 -10.7134 -5.64898
2 -10.3017 -11.521 -1.85783
2 19.7612 20.3963 -20.2312
2 -10.0564 -11.4422 2.38899
2 9.38561 -11.1634 -0.207067
2 -7.18033 -11.3583 6.81322
2 -2.96709 -12.556 9.86136
2 1.238 -9.79063 8.37851
2 -3.39275 -5.13446 -12.4295
2 5.62739 -5.23206 -12.0626
2 -9.35275 -3.98285 -9.32755
2 8.97357 -3.35867 -8.92223
2 14.0321 -3.38306 -7.3616
2 6.01154 -8.39939 -14.7561
2 14.0323 -3.40477 -4.18717
2 -11.7344 -3.11764 1.9067
2 23.4737 -13.0693 8.17153
2 -13.0921 -4.59166 5.79298
2 12.8503 -5.11597 5.35736
2 -9.88391 -4.69501 9.24033
2 -10.6687 -1.6768 21.0314
2 1.67988 -4.22709 13.7371
2 12.4398 -5.69108 -0.830013
2 13.4947 0.23558 -7.08953
2 -5.99155 4.20951 -13.6005
2 -2.36195 3.76748 -11.2596
2 1.53736 3.89127 -13.0375
2 8.41407 13.7702 -15.5672
2 -10.4171 4.16206 -10.7591
2 -6.51532 3.46163 23.6769
2 -12.9664 4.25771 -6.8543
2 -13.0768 3.62345 -2.53179
2 14.1571 4.5443 -0.634538
2 -14.4716 2.57464 2.67935
2 11.794 4.55952 0.600185
2 -12.251 4.07537 7.16143
2 13.4505 4.52857 5.27737
2 -9.85285 3.53956 11.0914
2 9.70411 4.31006 9.91647
2 -5.05507 3.66327 12.7857
2 -2.61869 4.71978 13.1035
2 2.2795 5.39793 13.8027
2 6.74673 5.4448 13.2621
2 -2.08751 9.23951 -9.24835
2 1.7344 10.7064 -10.1668
2 -5.52609 9.60393 -5.19782
2 7.07802 11.1565 -3.63366
2 -10.0292 11.5818 -2.1212
2 8.58333 11.188 -1.55904
2 -10.7096 9.97329 0.148818
2 8.8414 11.7829 2.59746
2 -6.21774 13.2523 4.8489
2 4.94877 11.4621 6.2152
2 -2.23074 12.1762 9.62544
2 1.62422 12.0447 10.2761
2 -11.6421 2.93423 -8.59848
2 -12.8253 -5.27755 -5.61869
2 -11.6243 6.57275 -6.07928
2 -12.7249 -10.4824 -1.51559
2 -11.272 -9.0722 2.22542
2 -11.4189 -6.47677 4.90139
2 -10.3631 5.98675 6.47338
2 -23.0334 -5.4309 1.97865
2 -4.43441 -7.51756 -11.597
2 -5.02829 1.67845 -14.0556
2 -3.35844 3.75854 -13.6512
2 -3.09475 -11.2185 -9.88539
2 -1.34746 7.25081 -10.9057
2 -5.67148 -13.3003 -5.75257
2 -4.12442 11.9032 -5.38423
2 -4.73511 -13.5362 2.59169
2 -4.66672 13.2753 0.903245
2 -3.8188 13.9697 5.94545
2 -5.00706 -9.73607 9.82578
2 -3.67594 10.0445 10.3966
2 -5.90648 -0.735672 12.5978
2 1.66719 -18.9794 -19.222
2 -4.79516 20.1835 -14.5845
2 17.3733 5.45043 -14.1978
2 4.09983 -7.03441 -13.4088
2 4.1763 -0.397701 -12.3889
2 17.4649 -1.52757 -13.1762
2 3.3203 -9.75052 -9.77429
2 4.11435 9.59456 -10.5953
2 4.63831 -13.1039 -6.43214
2 3.67906 14.0469 -1.41979
2 3.92447 13.5428 2.79478
2 25.1948 -21.0664 2.79395
2 2.64593 -10.0757 10.8788
2 3.62756 10.2163 10.1099
2 3.90654 -5.63811 12.9416
2 5.72345 -4.26141 19.6267
2 4.53439 6.92566 13.8808
2 13.208 -5.85667 -8.40204
2 11.0932 -9.60525 -3.67017
2 12.2432 8.72899 -2.26425
2 11.3024 -9.77688 1.01712
2 11.1327 10.3981 2.59683
2 10.8116 -4.74904 7.11051
2 14.615 -4.10623 7.13524
2 10.7417 -2.30919 8.21062
2 10.1701 0.274834 9.14302
1 -3.47816 -9.37646 -11.2025
1 -0.0588985 -7.05991 -10.2086
1 3.16043 -6.04925 -8.23336
1 -7.76994 -4.44114 -11.2993
1 -4.5769 -2.94533 -8.84945
1 -10.0013 -0.167401 -10.5269
1 -3.60605 -0.270828 -12.8853
1 -0.123816 1.18194 -9.2316
1 0.757556 -5.77636 -8.50408
1 6.26763 0.645353 -9.6143
1 -7.97519 3.37637 -10.2046
1 -4.00574 3.02061 -9.51594
1 0.426776 2.72089 -11.0397
1 -0.722543 3.26755 -13.4184
1 2.26491 25.2056 -7.20924
1 -0.144232 5.42041 -14.1399
1 0.47776 6.51776 -9.64132
1 3.99707 7.27684 -10.1302
1 -3.39774 -10.0542 -7.25081
1 0.334582 -10.7331 -7.23617
1 3.86959 -10.8673 -7.62291
1 -5.67246 -8.95243 -7.12327
1 -3.99122 -7.33124 -7.73701
1 1.6816 -1.20551 -10.5865
1 4.3557 -7.16345 -5.98152
1 7.65954 -7.14142 -7.59856
1 -11.2397 -5.44023 -7.71818
1 -8.32815 -4.9549 -7.25468
1 -4.167 -4.37573 -6.25127
1 -11.1975 -23.4935 4.12121
1 2.98633 -1.70074 -8.43637
1 17.5872 -19.1633 5.81069
1 9.82311 -2.9828 -6.26614
1 -9.75093 0.120054 -7.04403
1 -7.43121 0.517911 -7.28322
1 -3.86784 -0.47006 -8.31823
1 0.47069 0.300619 -7.0798
1 2.01119 0.387446 -8.89894
1 7.1906 0.574399 -7.36429
1 10.4946 -0.837707 -7.12714
1 -10.5184 4.35617 -6.99949
1 -6.95804 2.72914 -6.5056
1 -3.00919 2.86735 -6.51841
1 -0.920725 2.05093 -6.52241
1 20.6031 24.1032 7.14699
1 5.49073 2.24021 -8.04329
1 21.1334 -6.3214 -18.2548
1 -6.84468 6.43593 -7.4776
1 -4.32728 6.94496 -7.36566
1 -0.399195 8.34593 -7.37687
1 4.06951 7.16893 -6.48431
1 8.98669 4.98181 -5.84634
1 1.90863 5.85893 -1.14665
1 -14.1711 26.807 -1.77748
1 -6.96517 -10.3844 -3.40829
1 -3.6097 -11.1911 -3.74342
1 -0.243887 -10.4986 -3.88522
1 4.94578 -11.0443 -2.6437
1 7.20289 -10.6722 -3.92168
1 -9.70514 -6.4039 -3.25961
1 -5.81144 -7.05461 -4.97376
1 -14.5674 -6.86782 -3.9939
1 -0.545511 -9.04668 -2.05853
1 2.00442 -7.58878 -4.99893
1 7.00219 -6.72711 -3.39406
1 8.96016 -8.29265 -3.85226
1 -10.3111 -2.84096 -3.9348
1 -7.17224 -6.19396 -2.94401
1 -1.91401 -3.23615 -1.95397
1 0.261609 -3.2225 -3.7456
1 4.05174 -4.84423 -6.35612
1 6.11827 -3.05955 -2.02907
1 9.97699 -3.32269 -3.37844
1 -12.4673 0.225363 -5.18656
1 -7.30693 0.136038 -2.74715
1 -4.41224 2.46499 -3.13783
1 1.59868 0.811559 -1.04159
1 2.89742 -0.396986 -6.35329
1 11.189 0.456904 -3.00805
1 -10.7906 3.08029 -3.06664
1 -6.88028 3.66346 -2.88997
1 -0.635047 2.53536 -4.24789
1 4.87351 3.66436 -3.62426
1 6.6682 2.22442 -3.0861
1 -10.1944 7.0551 -3.82225
1 -7.0592 5.93481 -3.04293
1 -3.41185 7.6074 -4.59544
1 -0.464395 9.34363 -0.484176
1 5.80503 5.96287 -2.93428
1 6.71556 4.7144 -4.76081
1 10.3905 7.49581 -3.10614
1 0.261265 12.4515 -18.5851
1 -3.7457 10.039 -3.50502
1 -1.39665 10.2285 -2.42047
1 3.76265 9.68241 -6.21437
1 -6.54368 -9.69282 0.206901
1 -17.6259 -18.6559 -0.0300005
1 -0.382963 -10.2581 -0.0478849
1 2.97359 -10.8776 -0.960293
1 7.09604 -12.4627 0.11741
1 -10.7714 -7.4977 0.156224
1 -6.54577 -7.23764 0.0447062
1 -3.15997 -6.58061 0.0418184
1 0.214612 -7.07282 -0.733225
1 5.0631 -6.85421 -1.41227
1 -3.36669 -11.4915 -12.3009
1 10.044 -6.35548 -0.622803
1 -9.31657 -2.77091 0.64939
1 -3.81266 -5.27091 1.97105
1 -3.55897 -3.40418 -0.263584
1 2.2901 -3.41304 -0.0417113
1 3.40611 -1.65037 1.64365
1 7.01236 -3.07191 0.182517
1 11.2696 -10.9383 -1.59566
1 -19.7392 -9.37302 1.70668
1 -7.00457 -1.77408 0.826116
1 -2.66605 -0.0454399 0.597264
1 -8.98948 4.46964 18.6903
1 1.64488 1.13732 1.34523
1 5.8322 1.09136 0.335209
1 19.4106 11.9899 -6.8815
1 -10.8693 3.35057 1.10742
1 -6.18947 3.6031 0.877033
1 -3.72716 3.78141 0.348221
1 -0.856694 3.11891 1.33912
1 3.58325 4.86935 -2.24649
1 10.7631 6.48364 -5.18404
1 10.4538 2.40712 -0.43591
1 -11.0935 6.69114 0.087403
1 -7.05532 5.92264 0.720034
1 -3.51742 6.03875 -0.33963
1 -3.65315 13.551 8.28643
1 -1.69588 0.506652 2.82965
1 10.4946 6.88305 -0.443252
1 -6.34219 10.2531 -0.204507
1 -2.55691 8.20242 -2.48459
1 0.499109 10.7488 2.10175
1 6.66428 10.8966 0.67494
1 -6.80127 -10.5307 4.35526
1 -2.90429 -9.55807 3.79752
1 -1.18382 -10.0006 2.1676
1 3.69422 -10.0892 2.30783
1 7.6135 -9.5081 2.69547
1 -7.27642 -5.95904 3.67897
1 -3.48227 -6.54161 6.99557
1 -0.383762 -7.45047 3.48711
1 4.91964 -7.8767 3.23071
1 5.67688 -6.15827 5.01444
1 11.5732 -8.5478 3.04493
1 -9.4862 -2.31779 2.95851
1 -7.19531 -2.85358 2.8752
1 -3.19192 -3.4985 3.40909
1 4.03407 -3.70659 3.31105
1 3.22475 -9.2479 4.46266
1 7.35297 -4.09366 2.23268
1 12.0197 -4.20101 3.25593
1 -11.1939 1.38002 4.42757
1 -6.14293 -0.248219 3.1663
1 -3.72426 -0.600489 3.30617
1 0.272575 -3.82713 0.853095
1 4.24152 -0.240709 3.33859
1 9.82549 -0.233506 2.22722
1 12.7828 -0.1859 4.60084
1 -9.74042 3.17388 3.28768
1 -6.2338 1.81781 9.08518
1 -1.857 7.32776 0.732987
1 -0.224777 5.55912 4.51265
1 3.84977 3.31396 3.77816
1 19.8527 4.31215 -8.65796
1 11.6912 4.23478 3.15544
1 -11.1084 7.41953 4.42384
1 -7.146 7.03846 2.76465
1 -3.81457 7.87699 2.97737
1 0.632695 7.18584 3.08913
1 4.43402 7.70294 5.16057
1 6.5221 6.5189 0.963295
1 9.7183 6.59659 3.85174
1 -1.92579 24.7224 -14.8026
1 -3.66637 10.1706 3.41306
1 1.71213 9.12386 3.45966
1 2.8558 10.905 2.52593
1 6.60976 8.54467 4.49423
1 -4.40485 -10.3688 7.38575
1 -2.96556 -8.80169 6.21372
1 4.98121 -11.4933 5.88417
1 -7.37077 -6.88545 6.75233
1 -5.61619 -5.86673 7.8835
1 0.436262 -6.97763 6.75216
1 4.84811 -7.71023 7.49518
1 7.00713 -7.34174 6.70782
1 -6.7858 -2.69411 6.84494
1 -4.41972 -4.13574 6.96721
1 -2.19884 -2.92214 7.47701
1 6.53259 -3.4756 6.55723
1 8.69456 -2.84791 7.06755
1 12.8855 -3.15673 7.22688
1 -10.5655 0.559876 7.63902
1 -6.09302 0.226334 7.25035
1 -2.91586 -0.518745 7.34584
1 1.55343 -1.00335 6.40277
1 5.05982 -0.193703 8.75462
1 19.4439 -5.22643 14.5953
1 -9.99778 2.99128 7.13888
1 -8.40649 1.36422 8.01503
1 -2.75132 3.44283 6.31196
1 0.471432 2.77696 7.65067
1 3.04472 0.364524 7.82355
1 7.08884 2.64962 6.97484
1 19.4742 14.0009 3.1745
1 -6.96638 7.08919 6.57302
1 -3.72766 7.43385 6.09577
1 0.0287955 6.81556 6.60809
1 3.47204 5.48942 8.89672
1 7.20035 7.03969 6.57079
1 0.071745 12.489 6.03243
1 3.99338 9.83689 7.25976
1 -4.5625 -7.48104 10.7114
1 1.84785 -7.82136 10.7203
1 4.20921 -7.59189 11.1659
1 -7.65757 -3.97111 10.2376
1 -3.83418 -3.94611 10.9493
1 -0.999307 -4.85927 11.8651
1 9.81799 -0.53856 20.396
1 6.06416 -2.25492 9.54027
1 -7.04352 -0.095792 10.7529
1 -3.48148 -0.349047 11.3655
1 1.69266 -1.91487 11.0175
1 3.1333 -0.155314 10.2621
1 7.06179 -0.248594 10.2936
1 -8.24536 5.34258 10.4567
1 -3.78042 3.62354 10.7737
1 -1.23207 3.68637 11.2264
1 3.44595 3.46839 11.5917
1 7.17407 3.81337 10.0067
1 -3.95957 7.46917 10.1065
1 -0.194038 6.74999 10.6514
1 3.79769 7.30035 10.6956
1 -1.63587 -1.20676 -12.0107
1 2.54791 -2.63505 -12.2277
1 -1.96945 1.40729 -12.8694
1 2.74993 0.97698 -14.3995
1 -1.31148 -9.04673 -9.82921
1 0.918793 -9.83999 -10.5239
1 -3.66175 -1.43205 -4.19062
1 -1.98846 -5.33824 -10.4406
1 2.01469 -5.81107 -10.4825
1 5.11495 -4.95686 -9.83773
1 -7.40593 -1.72053 -10.3048
1 -5.75551 -1.22481 -12.1401
1 8.31969 -17.7343 -10.5394
1 6.64439 -3.24164 -9.94104
1 4.01335 -0.877647 -10.2964
1 10.5089 -1.68831 -9.3478
1 -9.2984 1.8959 -11.4676
1 -6.07085 1.15222 -12.092
1 -1.86647 1.74512 -10.4388
1 15.3088 3.84069 -14.2469
1 -1.40217 5.00742 -9.79956
1 -0.0686086 5.31046 -11.7433
1 4.60624 4.75682 -10.2041
1 25.9306 -7.74851 -13.4607
1 1.78504 7.80197 -11.1895
1 -1.78485 -11.7221 -7.47403
1 2.18488 -12.4144 -6.33311
1 -8.83784 -9.35714 -7.18336
1 -14.2995 -10.491 -16.5916
1 -1.94067 -8.19464 -6.67864
1 2.07588 -9.13354 -7.14129
1 6.15968 -8.83139 -7.08366
1 6.20499 -7.80198 -12.213
1 -9.843 -7.31089 -7.5463
1 -0.458857 -6.71076 -5.47014
1 2.34088 -3.92244 -7.88251
1 5.42985 -6.39791 -7.9304
1 9.1817 -5.42132 -7.53775
1 -12.6284 -1.40881 -6.74756
1 -8.31382 -1.73176 -7.93419
1 -6.07777 -1.08716 -8.51155
1 -0.828882 -1.68535 -7.79569
1 4.31353 0.224202 -8.32336
1 8.13639 -1.59999 -6.88964
1 12.5655 -1.73827 -8.18915
1 -11.758 1.93798 -6.57225
1 -9.16487 2.39304 -7.10197
1 -2.31329 1.04724 -8.14914
1 1.19762 2.55582 -7.75206
1 3.22911 2.00274 -6.83072
1 7.05703 1.46291 -5.167
1 11.1246 1.53828 -7.12677
1 -8.24651 4.55752 -7.18628
1 -5.04555 3.77806 -7.4749
1 2.71257 5.24252 -6.08726
1 5.22587 3.20022 -5.87593
1 9.9569 6.76424 -7.26559
1 -10.1453 8.57985 -5.69853
1 -5.53315 8.75609 -8.72552
1 -0.33209 12.0152 -6.37629
1 -0.894299 -1.47511 -0.784481
1 5.88428 8.92837 -6.49348
1 7.96059 7.85093 -6.69725
1 -2.09245 11.0631 -7.17192
1 1.84319 11.0646 -6.13069
1 -5.70624 -12.4373 -3.19588
1 -1.54464 -12.4622 -4.29595
1 1.20927 -12.5277 -3.99155
1 -13.2509 9.6874 -12.341
1 -8.2374 -8.29695 -3.512
1 -5.06869 -8.94548 -3.6416
1 1.74209 -9.21518 -3.23711
1 4.66686 -7.4764 -3.66206
1 11.1755 -9.08848 -6.27058
1 -11.3005 -4.70982 -3.00121
1 -8.0679 -6.46593 -5.38935
1 -4.91031 -5.18295 -3.91082
1 -1.14666 -5.07224 -3.06478
1 0.978479 -5.52168 -4.07914
1 7.3692 -4.42578 -3.73978
1 9.21477 -5.86196 -3.23357
1 12.701 -5.73404 -3.34302
1 -6.73889 1.84523 -4.29845
1 -8.15388 -1.97557 -3.63491
1 -5.65773 -1.51663 -2.82933
1 -1.40584 -1.3164 -3.28537
1 2.10593 -2.42906 -2.29119
1 12.4341 -1.38111 -3.63564
1 -12.3783 1.2034 -2.93673
1 -8.6869 2.04741 -2.89832
1 20.9698 7.37478 -13.9623
1 2.92441 -0.251214 -2.92871
1 1.22075 1.4875 -3.29676
1 5.10005 0.771662 -6.16464
1 8.8192 1.09157 -3.47092
1 7.87554 -5.96559 -5.56508
1 -11.268 5.34308 -3.09326
1 -9.05858 4.62935 -2.91079
1 -5.05222 5.03908 -3.80345
1 -1.14845 4.42771 -5.79972
1 -6.58864 -6.65971 -7.20199
1 3.66766 13.7801 -4.13257
1 9.90749 5.131 -3.53617
1 -8.16874 7.90546 -3.05736
1 -5.8596 7.98719 -3.35279
1 -5.66344 12.6412 -7.06205
1 2.00588 9.50798 -4.35113
1 5.47276 10.4776 -1.41951
1 7.04982 6.8873 -1.31227
1 -6.18885 10.3969 -2.96789
1 -1.95335 13.3887 -5.22609
1 0.309355 11.6294 -3.83088
1 4.70281 11.9483 -3.14293
1 -6.74706 -13.3436 0.356001
1 -1.85868 -12.9474 -0.296279
1 1.83868 -12.9578 -0.495362
1 -8.97011 -8.87909 0.871111
1 -4.53011 -8.67593 -0.478925
1 -1.90344 -8.50892 -0.0085861
1 1.58257 -8.94253 -0.879011
1 16.1224 -14.1699 9.19295
1 19.8596 -14.5411 -11.967
1 -13.5971 -8.00483 -2.17948
1 -8.658 -6.33537 0.780357
1 -5.12376 -5.29326 -0.0731318
1 -1.26768 -5.22996 -0.655809
1 4.05586 -4.94336 -0.540848
1 -0.781053 -1.98119 -5.53392
1 8.92041 -4.33181 0.384778
1 14.3793 -4.70521 -2.07769
1 -12.6754 -1.9239 -0.0950065
1 -5.01248 1.23536 -6.7946
1 -4.65905 -1.13838 0.230069
1 -0.724826 -1.44178 1.73062
1 4.4982 5.40403 4.28128
1 5.53394 -1.11493 0.772817
1 8.62524 0.799156 -1.09778
1 20.887 -20.4424 -2.21105
1 -13.3697 2.9147 0.906488
1 -9.65413 1.53844 -0.353809
1 -4.51097 1.47849 0.081234
1 -2.15761 1.96863 -0.308197
1 -2.93227 12.008 -2.67224
1 5.29684 3.30544 0.77714
1 4.23541 -2.26613 -3.05031
1 12.4288 1.84232 0.554114
1 -9.37332 5.12583 0.919746
1 -2.90304 0.150359 -6.09567
1 -1.65295 5.13339 0.592769
1 0.636945 4.59702 0.251451
1 5.34476 8.20961 -2.26566
1 10.1419 2.82646 -2.70192
1 -11.0206 9.0911 2.70166
1 -4.28478 9.20091 0.89237
1 6.3471 7.09542 -5.07149
1 1.64949 8.20627 -1.01442
1 7.25812 -1.11311 -1.04858
1 8.26928 8.05402 0.0836596
1 -6.18612 12.527 -1.29507
1 -3.09214 13.056 -0.776519
1 1.32732 12.4314 -0.499694
1 16.6821 17.6244 -7.0722
1 -4.54322 -11.2179 3.40521
1 -2.38066 -12.0591 3.42195
1 1.9454 22.7634 3.1537
1 8.68177 -17.4677 9.82042
1 -7.23996 -7.84992 2.28734
1 -5.32948 -8.89077 3.22707
1 -0.716033 -10.8712 4.39682
1 0.970999 -9.36239 3.475
1 7.10029 -10.1781 0.419763
1 -15.4912 9.66493 -12.7226
1 -10.7872 -4.70999 3.26223
1 -9.35061 -4.98226 4.96269
1 -5.3606 -4.58552 3.61715
1 -1.83306 -5.57698 3.49969
1 3.46204 -5.95447 3.95503
1 5.49913 -5.56655 2.67485
1 9.70322 -4.17491 2.63809
1 11.6633 -6.35073 3.14387
1 -11.4931 -0.731691 3.21446
1 -9.65344 -0.627737 4.60572
1 -5.30827 -2.27523 4.05562
1 -1.61305 -1.62261 3.95676
1 0.623217 -2.23115 4.4775
1 5.25411 1.48657 4.64338
1 8.28257 -1.78926 3.03065
1 10.8958 -1.94191 3.4575
1 -12.2081 3.22406 3.12041
1 -8.1622 1.13306 3.72334
1 -4.62447 1.62449 3.52537
1 1.74105 3.31499 2.11954
1 2.28105 1.505 3.67195
1 6.17724 1.92811 2.59514
1 7.45439 2.67396 4.68692
1 11.8679 1.75666 3.55889
1 -10.9781 5.22901 3.40179
1 -6.7401 5.44433 4.75065
1 -3.12856 2.03956 1.8023
1 1.93804 5.06224 3.52034
1 5.60323 4.8525 2.37278
1 9.06996 5.7301 1.65043
1 11.5007 5.92393 5.48135
1 -8.23128 8.99349 2.41682
1 -5.90207 9.35675 2.97984
1 -1.9662 8.82292 4.3241
1 -18.7456 17.6516 23.3483
1 5.42453 7.12015 3.03139
1 7.67523 7.1418 2.91113
1 -6.02089 13.2827 2.74856
1 -0.200312 13.1268 2.83819
1 -17.3977 21.4168 -18.114
1 4.95815 11.3142 3.4544
1 -2.65915 -12.1787 7.55221
1 1.27328 -12.1404 7.52532
1 -8.14927 -9.1278 6.58082
1 -5.29255 -8.05463 6.57324
1 -0.738889 -11.0817 6.76476
1 1.26609 -10.496 5.62331
1 3.62491 -9.71086 6.79452
1 9.23244 -6.71221 7.8964
1 -8.51222 -4.61908 7.03497
1 -1.55323 -5.36956 7.48638
1 2.50971 -5.74346 6.102
1 5.65059 -5.5322 7.31232
1 8.19405 -5.14725 6.40714
1 -12.7706 -2.53132 6.74251
1 -8.63601 -0.723421 6.97007
1 -4.7049 -1.91058 7.71088
1 -10.4688 -0.546518 13.5682
1 1.7623 -1.58774 8.67003
1 -4.46647 -15.9853 -22.4708
1 15.3299 6.06353 -13.9046
1 12.0569 -0.995417 6.61546
1 -12.3755 1.51875 6.67205
1 -4.07115 1.47726 6.60058
1 -1.77249 1.60227 7.61917
1 1.56706 1.32298 6.09989
1 4.92068 1.70651 7.21419
1 10.5148 -2.45409 5.6429
1 13.0243 2.86743 7.18304
1 -8.19209 4.90808 6.95218
1 -4.85096 5.40327 6.40528
1 -1.75954 5.915 7.96226
1 1.50356 4.93197 7.4583
1 5.20897 5.64465 6.62651
1 9.10498 5.49388 7.3944
1 -9.00351 8.40028 6.98987
1 -5.52072 9.01577 6.6836
1 -1.85517 10.1531 8.60139
1 1.88421 8.77253 6.61344
1 6.23938 9.35342 6.75974
1 9.29129 7.87091 7.74642
1 -2.03043 12.5418 7.04616
1 2.19456 11.8441 6.40533
1 -1.67064 -9.09802 12.5258
1 2.48453 -10.7166 13.2884
1 -5.90962 -5.55248 10.3247
1 -2.84671 -6.07974 11.5796
1 0.82014 -5.64123 10.5093
1 5.219 -4.33273 10.1211
1 -9.68136 -2.31039 10.4893
1 -5.34527 -1.97188 10.7142
1 -2.01223 -2.70156 11.6211
1 1.75514 -3.74135 9.53271
1 3.74603 -2.40436 9.72999
1 8.43225 -1.80275 9.21627
1 -9.18088 -0.275928 11.752
1 -4.91887 1.52507 11.2013
1 0.311073 0.387069 8.00154
1 2.10952 1.62603 11.5363
1 4.52085 1.44483 11.7445
1 8.3092 1.76011 10.3829
1 -5.95797 6.27435 10.2652
1 -2.23511 5.66636 10.3109
1 2.15124 5.51974 11.105
1 5.47565 5.41294 10.2266
1 -2.33547 8.91195 11.5154
1 1.38312 8.62202 10.3751
1 -1.95059 -2.03521 13.8187
1 2.24598 -2.16683 13.2906
1 -1.67427 3.99411 15.3766
1 0.271481 4.48105 14.4073
1 -2.09328 -13.8679 -2.39673
1 1.77301 -14.3906 -2.4677
1 -2.02092 -13.7146 1.80495
1 1.61384 -13.5509 1.7679
1 -0.549046 -11.3638 -9.5085
1 1.93448 -11.3794 -8.95625
1 -5.39864 -10.5944 -5.30173
1 -1.8989 -10.452 -5.51838
1 1.69304 -10.4263 -5.23952
1 6.54791 -8.56378 -4.82997
1 -8.4753 -9.91877 -1.50322
1 -5.17606 -10.5975 -1.76597
1 -1.47434 -11.4284 -2.05858
1 0.909259 -11.1445 -1.94305
1 9.13758 -10.4632 -2.67837
1 -7.56538 -10.3087 2.15095
1 -5.76368 -11.5499 1.38423
1 -3.04085 -10.5579 -0.496011
1 1.57848 -10.3271 1.22072
1 5.08071 -11.0365 -0.205668
1 1.63309 -5.62325 8.24238
1 -4.8018 -9.88698 5.25001
1 -0.176496 -13.4402 3.20374
1 4.08434 -12.0673 3.70634
1 -2.31157 -10.0883 8.92754
1 -0.424277 -9.55414 10.5056
1 -2.27607 -7.65048 -12.2813
1 1.64879 -6.50486 -12.7368
1 -7.21559 -7.24703 -11.2616
1 -5.89275 -7.47829 -9.23756
1 -1.76222 -6.87111 -8.65879
1 1.95197 -7.83968 -9.25229
1 6.37391 -8.14105 -9.26315
1 10.8078 -5.80384 -9.11588
1 -9.88735 -8.20189 -5.21661
1 -3.51136 -7.01401 -3.69275
1 -1.71459 -8.45096 -4.21109
1 1.57137 -5.61156 -6.35062
1 5.63346 -5.50968 -4.87147
1 9.56983 -7.40426 -6.33793
1 -12.0984 -6.33702 -1.44237
1 -8.55699 -7.52646 -1.27658
1 -4.98058 -6.85295 -1.89686
1 -1.80833 -7.09422 -2.05092
1 -13.161 23.2879 -22.1381
1 23.6037 -2.68612 12.169
1 8.28372 -7.56703 -1.58796
1 11.2735 -7.28319 -2.45954
1 -12.3032 -6.98679 2.35044
1 -8.79181 -4.40527 2.21792
1 -2.34497 -7.59697 2.15186
1 2.4398 -6.90721 0.0363453
1 4.54159 -6.93091 1.02163
1 9.12772 -6.29626 1.67188
1 11.3591 -7.42375 1.08348
1 -9.19554 -7.45079 5.35408
1 -5.50157 -5.98644 5.46058
1 -1.61889 -6.86294 5.53409
1 1.7387 -7.43909 4.6436
1 9.05669 -7.22079 5.66658
1 -9.55651 -6.7723 7.50098
1 -6.30577 -7.71344 9.12481
1 -1.5598 -7.90859 7.78673
1 0.37454 -7.54909 9.04078
1 5.34864 -6.75447 9.39514
1 7.38799 -5.80046 9.02136
1 -5.11015 -6.11716 12.4977
1 1.17903 -6.39319 12.8455
1 -5.71721 -3.52115 -12.1891
1 -1.33498 -3.61354 -11.9767
1 1.01547 -4.32128 -12.2513
1 4.72493 -3.02913 -11.406
1 -5.82855 -2.86966 -6.98059
1 -5.90043 -5.76865 -12.3122
1 0.0312454 -3.90162 -7.43293
1 15.2092 3.2482 6.39195
1 2.3133 -7.07379 -2.40695
1 -10.7329 -3.67163 -6.21997
1 -8.53575 -4.0423 -5.03785
1 -2.19836 -3.40909 -7.0202
1 3.70639 -2.58783 -6.43182
1 6.03913 -2.56991 -4.28995
1 8.18543 -2.52704 -4.76378
1 11.7146 -3.26256 -4.96103
1 -12.4589 -2.81852 -2.16
1 -8.85658 -4.26453 -2.63683
1 -5.80643 -3.08508 -0.733167
1 0.341827 -3.61225 -1.42611
1 2.20977 -4.81217 -2.17218
1 4.18215 -2.45991 -0.756358
1 8.45115 -3.16879 -1.74328
1 12.3851 -3.46758 -2.49124
1 -12.9928 -4.2498 -0.370003
1 -8.74484 -0.627208 -0.444587
1 -5.13685 -3.13385 1.6264
1 -1.86237 -4.10444 1.42348
1 1.78523 -2.92499 2.4283
1 4.98996 -3.60656 1.2144
1 9.30502 -1.46245 -0.115039
1 10.4053 14.5237 -14.6014
1 -11.0355 -2.91757 4.96862
1 -15.0868 -4.04772 7.0067
1 -1.70096 6.82291 3.05481
1 -1.21885 -3.61597 5.29532
1 2.02982 -4.05697 4.5736
1 6.22562 -3.99014 4.32242
1 8.57039 -3.58728 4.63412
1 -8.7783 -2.67728 8.31045
1 -5.82026 -3.68663 8.82853
1 -1.69904 -3.81015 9.53738
1 2.17512 -3.54825 7.13919
1 4.70197 -3.60952 8.0487
1 9.24982 -4.46317 8.88237
1 -5.75436 -3.62845 12.3055
1 -2.81749 -6.89208 20.6337
1 1.9246 -4.04329 11.8106
1 5.67329 -3.90698 12.5199
1 -6.74498 -0.406209 -14.3991
1 -14.8383 -5.74024 -17.3411
1 1.76849 -0.510784 -12.879
1 -21.0713 -22.5969 -12.3888
1 -5.28914 0.213036 -10.2048
1 -7.96324 5.12516 -18.9241
1 0.022175 -3.63486 7.81602
1 6.58242 -6.36088 -14.1242
1 8.10478 -0.876438 -9.00014
1 -18.3536 0.0497949 -9.9493
1 -9.26235 -1.83304 -5.7361
1 -5.00091 0.405481 -4.38223
1 1.15317 2.07038 -5.47573
1 1.28384 -2.06287 -6.64817
1 9.26711 -1.04512 -2.47208
1 9.00847 0.258387 -5.70221
1 12.0908 0.201226 -5.33881
1 -11.5986 -0.0101694 -1.12207
1 -6.57063 -3.76388 -2.85916
1 -0.64179 0.743445 -2.15068
1 12.239 3.5605 -1.58486
1 11.3761 -1.66796 0.939587
1 13.7784 -1.18366 0.604059
1 -12.5354 0.793299 1.0833
1 -8.19667 0.0629001 1.67019
1 -5.29414 -2.9759 -4.76134
1 10.3864 -14.7445 16.5481
1 7.38327 -0.184194 1.58277
1 11.0801 -2.34007 20.4591
1 12.581 -0.109506 2.26734
1 -7.27947 -1.08175 5.02472
1 -4.714 -0.534602 5.50146
1 -2.26704 0.39564 5.32562
1 0.0529338 0.127162 4.5934
1 3.54903 0.217947 5.52934
1 8.47245 1.34076 3.04249
1 -9.0702 -0.450546 9.36628
1 -4.80643 -0.12485 9.26549
1 -1.81457 0.267423 9.73681
1 0.564533 0.0835066 10.3036
1 5.09894 -0.764251 11.4083
1 7.7947 0.72738 8.22442
1 -1.25994 -0.485119 12.1396
1 0.970263 -0.314448 12.6084
1 -5.01006 3.87309 -11.3305
1 3.02139 3.49392 -11.1709
1 4.26784 1.5778 -10.5803
1 -9.37612 5.55396 -8.98098
1 -6.17979 4.37877 -9.26517
1 -1.55017 3.20991 -8.39276
1 1.70155 4.43078 -9.27257
1 3.3811 2.96952 -8.86747
1 16.9858 7.69579 -13.4185
1 -12.7352 2.70315 -4.68671
1 -8.68988 3.16659 -4.88645
1 -4.92036 3.1938 -5.28972
1 -5.85347 6.60301 -9.598
1 6.39749 4.33237 -8.8623
1 8.54996 3.23048 -4.33759
1 9.42777 2.92459 -6.89523
1 -12.8722 4.64634 -0.553739
1 -7.84916 4.07669 -0.805308
1 -5.44006 4.75848 -1.19459
1 -1.94142 2.71736 -2.32883
1 6.65212 -9.43139 -16.9669
1 5.32487 2.65198 -1.40397
1 8.04777 3.11362 -1.02086
1 16.2579 3.22544 -0.674408
1 -12.6601 5.05673 1.758
1 -8.46879 2.85772 1.30103
1 -7.11151 3.19275 4.17786
1 -0.0351076 2.20206 3.34064
1 3.57519 1.87401 -0.242566
1 1.29846 -1.20445 0.559567
1 1.56648 13.8793 1.73536
1 19.5589 -15.8391 -13.8567
1 -11.1622 3.66716 5.19145
1 -9.01031 4.69844 4.79084
1 -4.64549 3.40629 7.72885
1 -2.47165 2.50943 4.02084
1 1.23745 3.44117 5.28764
1 5.31093 3.57701 5.56971
1 11.5177 3.24934 5.38117
1 13.8537 4.3104 2.43323
1 -8.067 3.48903 8.81624
1 -6.32916 3.71574 10.6406
1 -2.26484 3.73783 8.84347
1 1.84104 3.45867 9.7923
1 5.1242 3.73521 8.63076
1 8.0702 5.75746 11.3203
1 -14.4638 -11.9797 21.8733
1 -1.30238 2.87296 13.4237
1 1.08583 3.68978 12.2478
1 5.71857 3.48476 11.9145
1 0.0522901 9.37605 -10.9861
1 1.58554 6.52875 -13.196
1 -9.15303 6.65267 -7.00675
1 -2.19364 6.9588 -8.52749
1 1.67279 6.52587 -7.74519
1 5.80995 6.47722 -8.98809
1 8.80665 7.83608 -8.80889
1 -7.61002 7.66948 -5.52662
1 -5.42426 6.7249 -5.48999
1 0.42632 6.33959 -5.80687
1 4.32246 5.76534 -4.56458
1 5.58555 5.36593 -6.80915
1 8.62998 7.15547 -4.60654
1 -13.1466 6.50516 -2.04511
1 -9.0693 6.10662 -1.16677
1 -17.8253 14.2585 10.2823
1 -3.48506 4.40683 -2.21991
1 3.41841 9.56365 -2.4315
1 9.06928 -24.2862 -26.6299
1 11.8777 5.96418 -2.08742
1 -12.0516 7.15705 2.28573
1 -8.92123 7.88678 0.433838
1 -5.5691 5.46483 2.53883
1 -3.46578 5.77534 1.92467
1 4.20155 9.06628 3.24976
1 3.16359 6.79592 6.91925
1 11.0857 4.25025 7.47376
1 14.1015 6.63885 -2.11984
1 -8.65818 7.08146 4.97168
1 -5.65268 7.60075 4.65066
1 -1.67461 8.58019 6.71879
1 2.08843 7.15062 4.91215
1 7.27362 4.81761 5.96469
1 10.3763 7.83956 5.86767
1 -8.4899 6.79898 8.61718
1 -5.28993 7.15311 8.16384
1 -1.8123 7.94077 9.26681
1 1.20723 6.71123 8.82019
1 5.26282 7.19684 8.30022
1 8.6941 6.6496 9.45172
1 -1.99871 6.85567 12.4711
1 2.19092 7.69193 12.6657
1 2.64592 10.1726 -8.1438
1 -1.95735 11.0345 -4.59646
1 2.43551 11.8484 -3.46698
1 5.17514 9.45674 -4.29994
1 -8.24398 9.81509 -1.42551
1 -4.78359 8.84833 -1.48949
1 -0.289598 14.3564 -4.01188
1 -1.35916 11.2745 0.581811
1 1.04482 10.3088 -2.05078
1 9.24239 9.49178 -3.44534
1 -9.54206 10.7299 1.95385
1 -4.9984 11.3014 2.00978
1 -1.49626 11.1366 3.20784
1 2.00247 10.2471 0.258318
1 4.49295 10.2917 0.941471
1 9.14258 10.1882 0.828794
1 -5.60213 10.619 4.86604
1 -1.38708 10.6531 5.64114
1 1.20351 11.575 4.24297
1 5.38164 9.25628 9.1406
1 -0.637593 10.5846 10.8151
1 1.91704 10.3316 8.36973
1 -2.6706 15.1356 0.317427
1 1.72165 14.4158 -3.00184
1 -2.43482 13.3182 1.85683
1 3.52497 14.7634 0.834488
1 -14.121 -3.32952 1.57832
1 -12.0952 2.31308 -0.815888
1 -13.4841 -1.13822 1.98623
1 -13.3603 0.737455 3.35068
1 -11.2653 -1.90586 -9.95394
1 -9.5017 1.67762 -9.24229
1 -10.4488 -6.05396 -5.64635
1 -10.6024 -1.93373 -7.71988
1 -10.5304 1.37019 -4.57548
1 -9.56626 5.31133 -5.05032
1 -10.8994 -10.4333 0.160373
1 -9.9121 -5.54376 -1.02646
1 -10.3387 -2.03204 -1.42643
1 -11.7112 -0.959601 -3.31425
1 -10.461 4.15246 -1.03007
1 -10.3984 7.9048 -1.68717
1 -11.2876 -5.29476 0.905153
1 -10.69 -0.820575 0.97927
1 -10.1641 1.13683 2.26289
1 -9.63789 7.08176 2.59038
1 -13.48 -13.8584 8.64934
1 -11.9053 -0.615692 5.61767
1 -9.03392 1.2857 5.80712
1 -4.6881 24.2301 11.4832
1 -10.9071 -1.75049 8.41372
1 -16.7211 3.62839 14.4915
1 -7.60511 -2.32551 -13.0899
1 -7.26659 1.87449 -13.9682
1 -8.09287 -8.00254 -8.95262
1 -7.57947 -5.70486 -9.26114
1 -7.01278 -3.42095 -8.94876
1 -7.57266 0.74803 -10.1328
1 -6.60007 10.133 -7.15799
1 -7.25812 -8.95776 -5.52026
1 -6.40895 -4.83687 -5.78375
1 -6.97458 -1.42129 -5.67783
1 -8.48762 0.264571 -4.85242
1 -7.11516 4.97678 -5.20617
1 -4.26928 10.3374 -7.42518
1 -7.75779 -12.2682 -1.9866
1 -6.51063 -8.59336 -1.85587
1 -7.45422 -4.94925 -0.817676
1 -9.65222 0.0503192 -2.66519
1 -6.5691 0.267115 -0.126015
1 -4.08247 6.59678 -2.49113
1 -6.69624 7.31514 -1.30844
1 -7.67204 12.4914 -3.19968
1 -7.6587 -12.7924 2.44217
1 -4.76904 -7.33469 1.64753
1 -6.71122 -5.09921 1.51213
1 -8.85695 -2.72887 5.70234
1 -6.53007 1.67054 2.07185
1 -7.9224 4.77058 2.71044
1 -6.49241 8.3568 0.988807
1 -6.88853 12.1658 1.03877
1 -6.95804 -8.11609 4.72137
1 -7.11269 -4.14204 5.06987
1 -7.96487 -2.54944 -1.33689
1 -6.259 1.29414 5.17483
1 -6.80938 2.97998 6.80493
1 -7.40237 9.17327 5.17636
1 -6.72233 -9.77158 8.30081
1 -7.80952 -5.87946 8.88592
1 -6.75864 -1.45702 8.86773
1 -8.40807 1.71515 10.3881
1 -6.34013 4.99282 8.26983
1 -7.12155 8.67682 8.36725
1 -7.68617 -2.22021 11.8954
1 -6.93634 1.58875 12.472
1 -4.3559 -4.59902 -10.4983
1 -3.68128 -2.45893 -11.9842
1 -3.922 1.74809 -11.6193
1 -4.26195 5.95379 -12.2878
1 -4.58234 -9.34298 -9.19712
1 -3.65333 -7.05121 -10.1279
1 -2.96508 -0.235137 -10.4206
1 -6.06491 2.03579 -8.64242
1 -3.89309 7.64608 -9.76361
1 -2.6413 8.69917 -6.50088