LAMMPS DATA FOR MEAM SIMULATION

    933   atoms
      2   atom types

  -24.09   24.09   xlo xhi
  -24.09   24.09   ylo yhi
  -24.09   24.09   zlo zhi

 Atoms

     1   2     0.00000     0.00000   -11.79454
     2   2    -3.93151    -7.86303    -7.86303
     3   2     0.00000    -7.86303    -7.86303
     4   2     3.93151    -7.86303    -7.86303
     5   2    -7.86303    -3.93151    -7.86303
     6   2    -3.93151    -3.93151    -7.86303
     7   2     0.00000    -3.93151    -7.86303
     8   2     3.93151    -3.93151    -7.86303
     9   2     7.86303    -3.93151    -7.86303
    10   2    -7.86303     0.00000    -7.86303
    11   2    -3.93151     0.00000    -7.86303
    12   2     0.00000     0.00000    -7.86303
    13   2     3.93151     0.00000    -7.86303
    14   2     7.86303     0.00000    -7.86303
    15   2    -7.86303     3.93151    -7.86303
    16   2    -3.93151     3.93151    -7.86303
    17   2     0.00000     3.93151    -7.86303
    18   2     3.93151     3.93151    -7.86303
    19   2     7.86303     3.93151    -7.86303
    20   2    -3.93151     7.86303    -7.86303
    21   2     0.00000     7.86303    -7.86303
    22   2     3.93151     7.86303    -7.86303
    23   2    -7.86303    -7.86303    -3.93151
    24   2    -3.93151    -7.86303    -3.93151
    25   2     0.00000    -7.86303    -3.93151
    26   2     3.93151    -7.86303    -3.93151
    27   2     7.86303    -7.86303    -3.93151
    28   2    -7.86303    -3.93151    -3.93151
    29   2    -3.93151    -3.93151    -3.93151
    30   2     0.00000    -3.93151    -3.93151
    31   2     3.93151    -3.93151    -3.93151
    32   2     7.86303    -3.93151    -3.93151
    33   2    -7.86303     0.00000    -3.93151
    34   2    -3.93151     0.00000    -3.93151
    35   2     0.00000     0.00000    -3.93151
    36   2     3.93151     0.00000    -3.93151
    37   2     7.86303     0.00000    -3.93151
    38   2    -7.86303     3.93151    -3.93151
    39   2    -3.93151     3.93151    -3.93151
    40   2     0.00000     3.93151    -3.93151
    41   2     3.93151     3.93151    -3.93151
    42   2     7.86303     3.93151    -3.93151
    43   2    -7.86303     7.86303    -3.93151
    44   2    -3.93151     7.86303    -3.93151
    45   2     0.00000     7.86303    -3.93151
    46   2     3.93151     7.86303    -3.93151
    47   2     7.86303     7.86303    -3.93151
    48   2     0.00000   -11.79454     0.00000
    49   2    -7.86303    -7.86303     0.00000
    50   2    -3.93151    -7.86303     0.00000
    51   2     0.00000    -7.86303     0.00000
    52   2     3.93151    -7.86303     0.00000
    53   2     7.86303    -7.86303     0.00000
    54   2    -7.86303    -3.93151     0.00000
    55   2    -3.93151    -3.93151     0.00000
    56   2     0.00000    -3.93151     0.00000
    57   2     3.93151    -3.93151     0.00000
    58   2     7.86303    -3.93151     0.00000
    59   2   -11.79454     0.00000     0.00000
    60   2    -7.86303     0.00000     0.00000
    61   2    -3.93151     0.00000     0.00000
    62   2     0.00000     0.00000     0.00000
    63   2     3.93151     0.00000     0.00000
    64   2     7.86303     0.00000     0.00000
    65   2    11.79454     0.00000     0.00000
    66   2    -7.86303     3.93151     0.00000
    67   2    -3.93151     3.93151     0.00000
    68   2     0.00000     3.93151     0.00000
    69   2     3.93151     3.93151     0.00000
    70   2     7.86303     3.93151     0.00000
    71   2    -7.86303     7.86303     0.00000
    72   2    -3.93151     7.86303     0.00000
    73   2     0.00000     7.86303     0.00000
    74   2     3.93151     7.86303     0.00000
    75   2     7.86303     7.86303     0.00000
    76   2     0.00000    11.79454     0.00000
    77   2    -7.86303    -7.86303     3.93151
    78   2    -3.93151    -7.86303     3.93151
    79   2     0.00000    -7.86303     3.93151
    80   2     3.93151    -7.86303     3.93151
    81   2     7.86303    -7.86303     3.93151
    82   2    -7.86303    -3.93151     3.93151
    83   2    -3.93151    -3.93151     3.93151
    84   2     0.00000    -3.93151     3.93151
    85   2     3.93151    -3.93151     3.93151
    86   2     7.86303    -3.93151     3.93151
    87   2    -7.86303     0.00000     3.93151
    88   2    -3.93151     0.00000     3.93151
    89   2     0.00000     0.00000     3.93151
    90   2     3.93151     0.00000     3.93151
    91   2     7.86303     0.00000     3.93151
    92   2    -7.86303     3.93151     3.93151
    93   2    -3.93151     3.93151     3.93151
    94   2     0.00000     3.93151     3.93151
    95   2     3.93151     3.93151     3.93151
    96   2     7.86303     3.93151     3.93151
    97   2    -7.86303     7.86303     3.93151
    98   2    -3.93151     7.86303     3.93151
    99   2     0.00000     7.86303     3.93151
   100   2     3.93151     7.86303     3.93151
   101   2     7.86303     7.86303     3.93151
   102   2    -3.93151    -7.86303     7.86303
   103   2     0.00000    -7.86303     7.86303
   104   2     3.93151    -7.86303     7.86303
   105   2    -7.86303    -3.93151     7.86303
   106   2    -3.93151    -3.93151     7.86303
   107   2     0.00000    -3.93151     7.86303
   108   2     3.93151    -3.93151     7.86303
   109   2     7.86303    -3.93151     7.86303
   110   2    -7.86303     0.00000     7.86303
   111   2    -3.93151     0.00000     7.86303
   112   2     0.00000     0.00000     7.86303
   113   2     3.93151     0.00000     7.86303
   114   2     7.86303     0.00000     7.86303
   115   2    -7.86303     3.93151     7.86303
   116   2    -3.93151     3.93151     7.86303
   117   2     0.00000     3.93151     7.86303
   118   2     3.93151     3.93151     7.86303
   119   2     7.86303     3.93151     7.86303
   120   2    -3.93151     7.86303     7.86303
   121   2     0.00000     7.86303     7.86303
   122   2     3.93151     7.86303     7.86303
   123   2     0.00000     0.00000    11.79454
   124   2    -5.89727    -5.89727    -7.86303
   125   2    -1.96576    -5.89727    -7.86303
   126   2     1.96576    -5.89727    -7.86303
   127   2     5.89727    -5.89727    -7.86303
   128   2    -5.89727    -1.96576    -7.86303
   129   2    -1.96576    -1.96576    -7.86303
   130   2     1.96576    -1.96576    -7.86303
   131   2     5.89727    -1.96576    -7.86303
   132   2    -5.89727     1.96576    -7.86303
   133   2    -1.96576     1.96576    -7.86303
   134   2     1.96576     1.96576    -7.86303
   135   2     5.89727     1.96576    -7.86303
   136   2    -5.89727     5.89727    -7.86303
   137   2    -1.96576     5.89727    -7.86303
   138   2     1.96576     5.89727    -7.86303
   139   2     5.89727     5.89727    -7.86303
   140   2    -1.96576    -9.82878    -3.93151
   141   2     1.96576    -9.82878    -3.93151
   142   2    -5.89727    -5.89727    -3.93151
   143   2    -1.96576    -5.89727    -3.93151
   144   2     1.96576    -5.89727    -3.93151
   145   2     5.89727    -5.89727    -3.93151
   146   2    -9.82878    -1.96576    -3.93151
   147   2    -5.89727    -1.96576    -3.93151
   148   2    -1.96576    -1.96576    -3.93151
   149   2     1.96576    -1.96576    -3.93151
   150   2     5.89727    -1.96576    -3.93151
   151   2     9.82878    -1.96576    -3.93151
   152   2    -9.82878     1.96576    -3.93151
   153   2    -5.89727     1.96576    -3.93151
   154   2    -1.96576     1.96576    -3.93151
   155   2     1.96576     1.96576    -3.93151
   156   2     5.89727     1.96576    -3.93151
   157   2     9.82878     1.96576    -3.93151
   158   2    -5.89727     5.89727    -3.93151
   159   2    -1.96576     5.89727    -3.93151
   160   2     1.96576     5.89727    -3.93151
   161   2     5.89727     5.89727    -3.93151
   162   2    -1.96576     9.82878    -3.93151
   163   2     1.96576     9.82878    -3.93151
   164   2    -5.89727    -9.82878     0.00000
   165   2    -1.96576    -9.82878     0.00000
   166   2     1.96576    -9.82878     0.00000
   167   2     5.89727    -9.82878     0.00000
   168   2    -9.82878    -5.89727     0.00000
   169   2    -5.89727    -5.89727     0.00000
   170   2    -1.96576    -5.89727     0.00000
   171   2     1.96576    -5.89727     0.00000
   172   2     5.89727    -5.89727     0.00000
   173   2     9.82878    -5.89727     0.00000
   174   2    -9.82878    -1.96576     0.00000
   175   2    -5.89727    -1.96576     0.00000
   176   2    -1.96576    -1.96576     0.00000
   177   2     1.96576    -1.96576     0.00000
   178   2     5.89727    -1.96576     0.00000
   179   2     9.82878    -1.96576     0.00000
   180   2    -9.82878     1.96576     0.00000
   181   2    -5.89727     1.96576     0.00000
   182   2    -1.96576     1.96576     0.00000
   183   2     1.96576     1.96576     0.00000
   184   2     5.89727     1.96576     0.00000
   185   2     9.82878     1.96576     0.00000
   186   2    -9.82878     5.89727     0.00000
   187   2    -5.89727     5.89727     0.00000
   188   2    -1.96576     5.89727     0.00000
   189   2     1.96576     5.89727     0.00000
   190   2     5.89727     5.89727     0.00000
   191   2     9.82878     5.89727     0.00000
   192   2    -5.89727     9.82878     0.00000
   193   2    -1.96576     9.82878     0.00000
   194   2     1.96576     9.82878     0.00000
   195   2     5.89727     9.82878     0.00000
   196   2    -1.96576    -9.82878     3.93151
   197   2     1.96576    -9.82878     3.93151
   198   2    -5.89727    -5.89727     3.93151
   199   2    -1.96576    -5.89727     3.93151
   200   2     1.96576    -5.89727     3.93151
   201   2     5.89727    -5.89727     3.93151
   202   2    -9.82878    -1.96576     3.93151
   203   2    -5.89727    -1.96576     3.93151
   204   2    -1.96576    -1.96576     3.93151
   205   2     1.96576    -1.96576     3.93151
   206   2     5.89727    -1.96576     3.93151
   207   2     9.82878    -1.96576     3.93151
   208   2    -9.82878     1.96576     3.93151
   209   2    -5.89727     1.96576     3.93151
   210   2    -1.96576     1.96576     3.93151
   211   2     1.96576     1.96576     3.93151
   212   2     5.89727     1.96576     3.93151
   213   2     9.82878     1.96576     3.93151
   214   2    -5.89727     5.89727     3.93151
   215   2    -1.96576     5.89727     3.93151
   216   2     1.96576     5.89727     3.93151
   217   2     5.89727     5.89727     3.93151
   218   2    -1.96576     9.82878     3.93151
   219   2     1.96576     9.82878     3.93151
   220   2    -5.89727    -5.89727     7.86303
   221   2    -1.96576    -5.89727     7.86303
   222   2     1.96576    -5.89727     7.86303
   223   2     5.89727    -5.89727     7.86303
   224   2    -5.89727    -1.96576     7.86303
   225   2    -1.96576    -1.96576     7.86303
   226   2     1.96576    -1.96576     7.86303
   227   2     5.89727    -1.96576     7.86303
   228   2    -5.89727     1.96576     7.86303
   229   2    -1.96576     1.96576     7.86303
   230   2     1.96576     1.96576     7.86303
   231   2     5.89727     1.96576     7.86303
   232   2    -5.89727     5.89727     7.86303
   233   2    -1.96576     5.89727     7.86303
   234   2     1.96576     5.89727     7.86303
   235   2     5.89727     5.89727     7.86303
   236   2    -5.89727    -7.86303    -5.89727
   237   2    -1.96576    -7.86303    -5.89727
   238   2     1.96576    -7.86303    -5.89727
   239   2     5.89727    -7.86303    -5.89727
   240   2    -5.89727    -7.86303    -1.96576
   241   2    -1.96576    -7.86303    -1.96576
   242   2     1.96576    -7.86303    -1.96576
   243   2     5.89727    -7.86303    -1.96576
   244   2    -5.89727    -7.86303     1.96576
   245   2    -1.96576    -7.86303     1.96576
   246   2     1.96576    -7.86303     1.96576
   247   2     5.89727    -7.86303     1.96576
   248   2    -5.89727    -7.86303     5.89727
   249   2    -1.96576    -7.86303     5.89727
   250   2     1.96576    -7.86303     5.89727
   251   2     5.89727    -7.86303     5.89727
   252   2    -1.96576    -3.93151    -9.82878
   253   2     1.96576    -3.93151    -9.82878
   254   2    -5.89727    -3.93151    -5.89727
   255   2    -1.96576    -3.93151    -5.89727
   256   2     1.96576    -3.93151    -5.89727
   257   2     5.89727    -3.93151    -5.89727
   258   2    -9.82878    -3.93151    -1.96576
   259   2    -5.89727    -3.93151    -1.96576
   260   2    -1.96576    -3.93151    -1.96576
   261   2     1.96576    -3.93151    -1.96576
   262   2     5.89727    -3.93151    -1.96576
   263   2     9.82878    -3.93151    -1.96576
   264   2    -9.82878    -3.93151     1.96576
   265   2    -5.89727    -3.93151     1.96576
   266   2    -1.96576    -3.93151     1.96576
   267   2     1.96576    -3.93151     1.96576
   268   2     5.89727    -3.93151     1.96576
   269   2     9.82878    -3.93151     1.96576
   270   2    -5.89727    -3.93151     5.89727
   271   2    -1.96576    -3.93151     5.89727
   272   2     1.96576    -3.93151     5.89727
   273   2     5.89727    -3.93151     5.89727
   274   2    -1.96576    -3.93151     9.82878
   275   2     1.96576    -3.93151     9.82878
   276   2    -5.89727     0.00000    -9.82878
   277   2    -1.96576     0.00000    -9.82878
   278   2     1.96576     0.00000    -9.82878
   279   2     5.89727     0.00000    -9.82878
   280   2    -9.82878     0.00000    -5.89727
   281   2    -5.89727     0.00000    -5.89727
   282   2    -1.96576     0.00000    -5.89727
   283   2     1.96576     0.00000    -5.89727
   284   2     5.89727     0.00000    -5.89727
   285   2     9.82878     0.00000    -5.89727
   286   2    -9.82878     0.00000    -1.96576
   287   2    -5.89727     0.00000    -1.96576
   288   2    -1.96576     0.00000    -1.96576
   289   2     1.96576     0.00000    -1.96576
   290   2     5.89727     0.00000    -1.96576
   291   2     9.82878     0.00000    -1.96576
   292   2    -9.82878     0.00000     1.96576
   293   2    -5.89727     0.00000     1.96576
   294   2    -1.96576     0.00000     1.96576
   295   2     1.96576     0.00000     1.96576
   296   2     5.89727     0.00000     1.96576
   297   2     9.82878     0.00000     1.96576
   298   2    -9.82878     0.00000     5.89727
   299   2    -5.89727     0.00000     5.89727
   300   2    -1.96576     0.00000     5.89727
   301   2     1.96576     0.00000     5.89727
   302   2     5.89727     0.00000     5.89727
   303   2     9.82878     0.00000     5.89727
   304   2    -5.89727     0.00000     9.82878
   305   2    -1.96576     0.00000     9.82878
   306   2     1.96576     0.00000     9.82878
   307   2     5.89727     0.00000     9.82878
   308   2    -1.96576     3.93151    -9.82878
   309   2     1.96576     3.93151    -9.82878
   310   2    -5.89727     3.93151    -5.89727
   311   2    -1.96576     3.93151    -5.89727
   312   2     1.96576     3.93151    -5.89727
   313   2     5.89727     3.93151    -5.89727
   314   2    -9.82878     3.93151    -1.96576
   315   2    -5.89727     3.93151    -1.96576
   316   2    -1.96576     3.93151    -1.96576
   317   2     1.96576     3.93151    -1.96576
   318   2     5.89727     3.93151    -1.96576
   319   2     9.82878     3.93151    -1.96576
   320   2    -9.82878     3.93151     1.96576
   321   2    -5.89727     3.93151     1.96576
   322   2    -1.96576     3.93151     1.96576
   323   2     1.96576     3.93151     1.96576
   324   2     5.89727     3.93151     1.96576
   325   2     9.82878     3.93151     1.96576
   326   2    -5.89727     3.93151     5.89727
   327   2    -1.96576     3.93151     5.89727
   328   2     1.96576     3.93151     5.89727
   329   2     5.89727     3.93151     5.89727
   330   2    -1.96576     3.93151     9.82878
   331   2     1.96576     3.93151     9.82878
   332   2    -5.89727     7.86303    -5.89727
   333   2    -1.96576     7.86303    -5.89727
   334   2     1.96576     7.86303    -5.89727
   335   2     5.89727     7.86303    -5.89727
   336   2    -5.89727     7.86303    -1.96576
   337   2    -1.96576     7.86303    -1.96576
   338   2     1.96576     7.86303    -1.96576
   339   2     5.89727     7.86303    -1.96576
   340   2    -5.89727     7.86303     1.96576
   341   2    -1.96576     7.86303     1.96576
   342   2     1.96576     7.86303     1.96576
   343   2     5.89727     7.86303     1.96576
   344   2    -5.89727     7.86303     5.89727
   345   2    -1.96576     7.86303     5.89727
   346   2     1.96576     7.86303     5.89727
   347   2     5.89727     7.86303     5.89727
   348   2    -7.86303    -5.89727    -5.89727
   349   2    -7.86303    -1.96576    -5.89727
   350   2    -7.86303     1.96576    -5.89727
   351   2    -7.86303     5.89727    -5.89727
   352   2    -7.86303    -5.89727    -1.96576
   353   2    -7.86303    -1.96576    -1.96576
   354   2    -7.86303     1.96576    -1.96576
   355   2    -7.86303     5.89727    -1.96576
   356   2    -7.86303    -5.89727     1.96576
   357   2    -7.86303    -1.96576     1.96576
   358   2    -7.86303     1.96576     1.96576
   359   2    -7.86303     5.89727     1.96576
   360   2    -7.86303    -5.89727     5.89727
   361   2    -7.86303    -1.96576     5.89727
   362   2    -7.86303     1.96576     5.89727
   363   2    -7.86303     5.89727     5.89727
   364   2    -3.93151    -1.96576    -9.82878
   365   2    -3.93151     1.96576    -9.82878
   366   2    -3.93151    -5.89727    -5.89727
   367   2    -3.93151    -1.96576    -5.89727
   368   2    -3.93151     1.96576    -5.89727
   369   2    -3.93151     5.89727    -5.89727
   370   2    -3.93151    -9.82878    -1.96576
   371   2    -3.93151    -5.89727    -1.96576
   372   2    -3.93151    -1.96576    -1.96576
   373   2    -3.93151     1.96576    -1.96576
   374   2    -3.93151     5.89727    -1.96576
   375   2    -3.93151     9.82878    -1.96576
   376   2    -3.93151    -9.82878     1.96576
   377   2    -3.93151    -5.89727     1.96576
   378   2    -3.93151    -1.96576     1.96576
   379   2    -3.93151     1.96576     1.96576
   380   2    -3.93151     5.89727     1.96576
   381   2    -3.93151     9.82878     1.96576
   382   2    -3.93151    -5.89727     5.89727
   383   2    -3.93151    -1.96576     5.89727
   384   2    -3.93151     1.96576     5.89727
   385   2    -3.93151     5.89727     5.89727
   386   2    -3.93151    -1.96576     9.82878
   387   2    -3.93151     1.96576     9.82878
   388   2     0.00000    -5.89727    -9.82878
   389   2     0.00000    -1.96576    -9.82878
   390   2     0.00000     1.96576    -9.82878
   391   2     0.00000     5.89727    -9.82878
   392   2     0.00000    -9.82878    -5.89727
   393   2     0.00000    -5.89727    -5.89727
   394   2     0.00000    -1.96576    -5.89727
   395   2     0.00000     1.96576    -5.89727
   396   2     0.00000     5.89727    -5.89727
   397   2     0.00000     9.82878    -5.89727
   398   2     0.00000    -9.82878    -1.96576
   399   2     0.00000    -5.89727    -1.96576
   400   2     0.00000    -1.96576    -1.96576
   401   2     0.00000     1.96576    -1.96576
   402   2     0.00000     5.89727    -1.96576
   403   2     0.00000     9.82878    -1.96576
   404   2     0.00000    -9.82878     1.96576
   405   2     0.00000    -5.89727     1.96576
   406   2     0.00000    -1.96576     1.96576
   407   2     0.00000     1.96576     1.96576
   408   2     0.00000     5.89727     1.96576
   409   2     0.00000     9.82878     1.96576
   410   2     0.00000    -9.82878     5.89727
   411   2     0.00000    -5.89727     5.89727
   412   2     0.00000    -1.96576     5.89727
   413   2     0.00000     1.96576     5.89727
   414   2     0.00000     5.89727     5.89727
   415   2     0.00000     9.82878     5.89727
   416   2     0.00000    -5.89727     9.82878
   417   2     0.00000    -1.96576     9.82878
   418   2     0.00000     1.96576     9.82878
   419   2     0.00000     5.89727     9.82878
   420   2     3.93151    -1.96576    -9.82878
   421   2     3.93151     1.96576    -9.82878
   422   2     3.93151    -5.89727    -5.89727
   423   2     3.93151    -1.96576    -5.89727
   424   2     3.93151     1.96576    -5.89727
   425   2     3.93151     5.89727    -5.89727
   426   2     3.93151    -9.82878    -1.96576
   427   2     3.93151    -5.89727    -1.96576
   428   2     3.93151    -1.96576    -1.96576
   429   2     3.93151     1.96576    -1.96576
   430   2     3.93151     5.89727    -1.96576
   431   2     3.93151     9.82878    -1.96576
   432   2     3.93151    -9.82878     1.96576
   433   2     3.93151    -5.89727     1.96576
   434   2     3.93151    -1.96576     1.96576
   435   2     3.93151     1.96576     1.96576
   436   2     3.93151     5.89727     1.96576
   437   2     3.93151     9.82878     1.96576
   438   2     3.93151    -5.89727     5.89727
   439   2     3.93151    -1.96576     5.89727
   440   2     3.93151     1.96576     5.89727
   441   2     3.93151     5.89727     5.89727
   442   2     3.93151    -1.96576     9.82878
   443   2     3.93151     1.96576     9.82878
   444   2     7.86303    -5.89727    -5.89727
   445   2     7.86303    -1.96576    -5.89727
   446   2     7.86303     1.96576    -5.89727
   447   2     7.86303     5.89727    -5.89727
   448   2     7.86303    -5.89727    -1.96576
   449   2     7.86303    -1.96576    -1.96576
   450   2     7.86303     1.96576    -1.96576
   451   2     7.86303     5.89727    -1.96576
   452   2     7.86303    -5.89727     1.96576
   453   2     7.86303    -1.96576     1.96576
   454   2     7.86303     1.96576     1.96576
   455   2     7.86303     5.89727     1.96576
   456   2     7.86303    -5.89727     5.89727
   457   2     7.86303    -1.96576     5.89727
   458   2     7.86303     1.96576     5.89727
   459   2     7.86303     5.89727     5.89727
   460   1    -3.52139    -3.52139   -14.08557
   461   1     0.00000    -3.52139   -14.08557
   462   1     3.52139    -3.52139   -14.08557
   463   1    -3.52139     0.00000   -14.08557
   464   1     0.00000     0.00000   -14.08557
   465   1     3.52139     0.00000   -14.08557
   466   1    -3.52139     3.52139   -14.08557
   467   1     0.00000     3.52139   -14.08557
   468   1     3.52139     3.52139   -14.08557
   469   1     0.00000   -10.56418   -10.56418
   470   1    -7.04278    -7.04278   -10.56418
   471   1     7.04278    -7.04278   -10.56418
   472   1   -10.56418     0.00000   -10.56418
   473   1    10.56418     0.00000   -10.56418
   474   1    -7.04278     7.04278   -10.56418
   475   1     7.04278     7.04278   -10.56418
   476   1     0.00000    10.56418   -10.56418
   477   1    -7.04278   -10.56418    -7.04278
   478   1     7.04278   -10.56418    -7.04278
   479   1   -10.56418    -7.04278    -7.04278
   480   1    10.56418    -7.04278    -7.04278
   481   1   -10.56418     7.04278    -7.04278
   482   1    10.56418     7.04278    -7.04278
   483   1    -7.04278    10.56418    -7.04278
   484   1     7.04278    10.56418    -7.04278
   485   1    -3.52139   -14.08557    -3.52139
   486   1     0.00000   -14.08557    -3.52139
   487   1     3.52139   -14.08557    -3.52139
   488   1   -14.08557    -3.52139    -3.52139
   489   1    14.08557    -3.52139    -3.52139
   490   1   -14.08557     0.00000    -3.52139
   491   1    14.08557     0.00000    -3.52139
   492   1   -14.08557     3.52139    -3.52139
   493   1    14.08557     3.52139    -3.52139
   494   1    -3.52139    14.08557    -3.52139
   495   1     0.00000    14.08557    -3.52139
   496   1     3.52139    14.08557    -3.52139
   497   1    -3.52139   -14.08557     0.00000
   498   1     0.00000   -14.08557     0.00000
   499   1     3.52139   -14.08557     0.00000
   500   1   -10.56418   -10.56418     0.00000
   501   1    10.56418   -10.56418     0.00000
   502   1   -14.08557    -3.52139     0.00000
   503   1    14.08557    -3.52139     0.00000
   504   1   -14.08557     0.00000     0.00000
   505   1    14.08557     0.00000     0.00000
   506   1   -14.08557     3.52139     0.00000
   507   1    14.08557     3.52139     0.00000
   508   1   -10.56418    10.56418     0.00000
   509   1    10.56418    10.56418     0.00000
   510   1    -3.52139    14.08557     0.00000
   511   1     0.00000    14.08557     0.00000
   512   1     3.52139    14.08557     0.00000
   513   1    -3.52139   -14.08557     3.52139
   514   1     0.00000   -14.08557     3.52139
   515   1     3.52139   -14.08557     3.52139
   516   1   -14.08557    -3.52139     3.52139
   517   1    14.08557    -3.52139     3.52139
   518   1   -14.08557     0.00000     3.52139
   519   1    14.08557     0.00000     3.52139
   520   1   -14.08557     3.52139     3.52139
   521   1    14.08557     3.52139     3.52139
   522   1    -3.52139    14.08557     3.52139
   523   1     0.00000    14.08557     3.52139
   524   1     3.52139    14.08557     3.52139
   525   1    -7.04278   -10.56418     7.04278
   526   1     7.04278   -10.56418     7.04278
   527   1   -10.56418    -7.04278     7.04278
   528   1    10.56418    -7.04278     7.04278
   529   1   -10.56418     7.04278     7.04278
   530   1    10.56418     7.04278     7.04278
   531   1    -7.04278    10.56418     7.04278
   532   1     7.04278    10.56418     7.04278
   533   1     0.00000   -10.56418    10.56418
   534   1    -7.04278    -7.04278    10.56418
   535   1     7.04278    -7.04278    10.56418
   536   1   -10.56418     0.00000    10.56418
   537   1    10.56418     0.00000    10.56418
   538   1    -7.04278     7.04278    10.56418
   539   1     7.04278     7.04278    10.56418
   540   1     0.00000    10.56418    10.56418
   541   1    -3.52139    -3.52139    14.08557
   542   1     0.00000    -3.52139    14.08557
   543   1     3.52139    -3.52139    14.08557
   544   1    -3.52139     0.00000    14.08557
   545   1     0.00000     0.00000    14.08557
   546   1     3.52139     0.00000    14.08557
   547   1    -3.52139     3.52139    14.08557
   548   1     0.00000     3.52139    14.08557
   549   1     3.52139     3.52139    14.08557
   550   1    -1.76070    -5.28209   -14.08557
   551   1     1.76070    -5.28209   -14.08557
   552   1    -5.28209    -1.76070   -14.08557
   553   1    -1.76070    -1.76070   -14.08557
   554   1     1.76070    -1.76070   -14.08557
   555   1     5.28209    -1.76070   -14.08557
   556   1    -5.28209     1.76070   -14.08557
   557   1    -1.76070     1.76070   -14.08557
   558   1     1.76070     1.76070   -14.08557
   559   1     5.28209     1.76070   -14.08557
   560   1    -1.76070     5.28209   -14.08557
   561   1     1.76070     5.28209   -14.08557
   562   1    -5.28209    -8.80348   -10.56418
   563   1    -1.76070    -8.80348   -10.56418
   564   1     1.76070    -8.80348   -10.56418
   565   1     5.28209    -8.80348   -10.56418
   566   1    -8.80348    -5.28209   -10.56418
   567   1     8.80348    -5.28209   -10.56418
   568   1    -8.80348    -1.76070   -10.56418
   569   1     8.80348    -1.76070   -10.56418
   570   1    -8.80348     1.76070   -10.56418
   571   1     8.80348     1.76070   -10.56418
   572   1    -8.80348     5.28209   -10.56418
   573   1     8.80348     5.28209   -10.56418
   574   1    -5.28209     8.80348   -10.56418
   575   1    -1.76070     8.80348   -10.56418
   576   1     1.76070     8.80348   -10.56418
   577   1     5.28209     8.80348   -10.56418
   578   1    -5.28209   -12.32487    -7.04278
   579   1    -1.76070   -12.32487    -7.04278
   580   1     1.76070   -12.32487    -7.04278
   581   1     5.28209   -12.32487    -7.04278
   582   1    -8.80348    -8.80348    -7.04278
   583   1     8.80348    -8.80348    -7.04278
   584   1   -12.32487    -5.28209    -7.04278
   585   1    12.32487    -5.28209    -7.04278
   586   1   -12.32487    -1.76070    -7.04278
   587   1    12.32487    -1.76070    -7.04278
   588   1   -12.32487     1.76070    -7.04278
   589   1    12.32487     1.76070    -7.04278
   590   1   -12.32487     5.28209    -7.04278
   591   1    12.32487     5.28209    -7.04278
   592   1    -8.80348     8.80348    -7.04278
   593   1     8.80348     8.80348    -7.04278
   594   1    -5.28209    12.32487    -7.04278
   595   1    -1.76070    12.32487    -7.04278
   596   1     1.76070    12.32487    -7.04278
   597   1     5.28209    12.32487    -7.04278
   598   1    -5.28209   -12.32487    -3.52139
   599   1     5.28209   -12.32487    -3.52139
   600   1   -12.32487    -5.28209    -3.52139
   601   1    12.32487    -5.28209    -3.52139
   602   1   -12.32487     5.28209    -3.52139
   603   1    12.32487     5.28209    -3.52139
   604   1    -5.28209    12.32487    -3.52139
   605   1     5.28209    12.32487    -3.52139
   606   1    -8.80348   -12.32487     0.00000
   607   1    -5.28209   -12.32487     0.00000
   608   1     5.28209   -12.32487     0.00000
   609   1     8.80348   -12.32487     0.00000
   610   1   -12.32487    -8.80348     0.00000
   611   1    12.32487    -8.80348     0.00000
   612   1   -12.32487    -5.28209     0.00000
   613   1    12.32487    -5.28209     0.00000
   614   1   -12.32487     5.28209     0.00000
   615   1    12.32487     5.28209     0.00000
   616   1   -12.32487     8.80348     0.00000
   617   1    12.32487     8.80348     0.00000
   618   1    -8.80348    12.32487     0.00000
   619   1    -5.28209    12.32487     0.00000
   620   1     5.28209    12.32487     0.00000
   621   1     8.80348    12.32487     0.00000
   622   1    -5.28209   -12.32487     3.52139
   623   1     5.28209   -12.32487     3.52139
   624   1   -12.32487    -5.28209     3.52139
   625   1    12.32487    -5.28209     3.52139
   626   1   -12.32487     5.28209     3.52139
   627   1    12.32487     5.28209     3.52139
   628   1    -5.28209    12.32487     3.52139
   629   1     5.28209    12.32487     3.52139
   630   1    -5.28209   -12.32487     7.04278
   631   1    -1.76070   -12.32487     7.04278
   632   1     1.76070   -12.32487     7.04278
   633   1     5.28209   -12.32487     7.04278
   634   1    -8.80348    -8.80348     7.04278