959
 Atoms. Timestep: 0
2 -3.93151 -7.86303 -11.7945
2 0 -7.86303 -11.7945
2 3.93151 -7.86303 -11.7945
2 -7.86303 -3.93151 -11.7945
2 -3.93151 -3.93151 -11.7945
2 0 -3.93151 -11.7945
2 3.93151 -3.93151 -11.7945
2 7.86303 -3.93151 -11.7945
2 -7.86303 0 -11.7945
2 -3.93151 0 -11.7945
2 0 0 -11.7945
2 3.93151 0 -11.7945
2 7.86303 0 -11.7945
2 -7.86303 3.93151 -11.7945
2 -3.93151 3.93151 -11.7945
2 0 3.93151 -11.7945
2 3.93151 3.93151 -11.7945
2 7.86303 3.93151 -11.7945
2 -3.93151 7.86303 -11.7945
2 0 7.86303 -11.7945
2 3.93151 7.86303 -11.7945
2 -3.93151 -11.7945 -7.86303
2 0 -11.7945 -7.86303
2 3.93151 -11.7945 -7.86303
2 -7.86303 -7.86303 -7.86303
2 -3.93151 -7.86303 -7.86303
2 0 -7.86303 -7.86303
2 3.93151 -7.86303 -7.86303
2 7.86303 -7.86303 -7.86303
2 -11.7945 -3.93151 -7.86303
2 -7.86303 -3.93151 -7.86303
2 -3.93151 -3.93151 -7.86303
2 0 -3.93151 -7.86303
2 3.93151 -3.93151 -7.86303
2 7.86303 -3.93151 -7.86303
2 11.7945 -3.93151 -7.86303
2 -11.7945 0 -7.86303
2 -7.86303 0 -7.86303
2 -3.93151 0 -7.86303
2 0 0 -7.86303
2 3.93151 0 -7.86303
2 7.86303 0 -7.86303
2 11.7945 0 -7.86303
2 -11.7945 3.93151 -7.86303
2 -7.86303 3.93151 -7.86303
2 -3.93151 3.93151 -7.86303
2 0 3.93151 -7.86303
2 3.93151 3.93151 -7.86303
2 7.86303 3.93151 -7.86303
2 11.7945 3.93151 -7.86303
2 -7.86303 7.86303 -7.86303
2 -3.93151 7.86303 -7.86303
2 0 7.86303 -7.86303
2 3.93151 7.86303 -7.86303
2 7.86303 7.86303 -7.86303
2 -3.93151 11.7945 -7.86303
2 0 11.7945 -7.86303
2 3.93151 11.7945 -7.86303
2 -7.86303 -11.7945 -3.93151
2 -3.93151 -11.7945 -3.93151
2 0 -11.7945 -3.93151
2 3.93151 -11.7945 -3.93151
2 7.86303 -11.7945 -3.93151
2 -11.7945 -7.86303 -3.93151
2 -7.86303 -7.86303 -3.93151
2 -3.93151 -7.86303 -3.93151
2 0 -7.86303 -3.93151
2 3.93151 -7.86303 -3.93151
2 7.86303 -7.86303 -3.93151
2 11.7945 -7.86303 -3.93151
2 -11.7945 -3.93151 -3.93151
2 -7.86303 -3.93151 -3.93151
2 -3.93151 -3.93151 -3.93151
2 0 -3.93151 -3.93151
2 3.93151 -3.93151 -3.93151
2 7.86303 -3.93151 -3.93151
2 11.7945 -3.93151 -3.93151
2 -11.7945 0 -3.93151
2 -7.86303 0 -3.93151
2 -3.93151 0 -3.93151
2 0 0 -3.93151
2 3.93151 0 -3.93151
2 7.86303 0 -3.93151
2 11.7945 0 -3.93151
2 -11.7945 3.93151 -3.93151
2 -7.86303 3.93151 -3.93151
2 -3.93151 3.93151 -3.93151
2 0 3.93151 -3.93151
2 3.93151 3.93151 -3.93151
2 7.86303 3.93151 -3.93151
2 11.7945 3.93151 -3.93151
2 -11.7945 7.86303 -3.93151
2 -7.86303 7.86303 -3.93151
2 -3.93151 7.86303 -3.93151
2 0 7.86303 -3.93151
2 3.93151 7.86303 -3.93151
2 7.86303 7.86303 -3.93151
2 11.7945 7.86303 -3.93151
2 -7.86303 11.7945 -3.93151
2 -3.93151 11.7945 -3.93151
2 0 11.7945 -3.93151
2 3.93151 11.7945 -3.93151
2 7.86303 11.7945 -3.93151
1 -7.86303 -11.7945 0
1 -3.93151 -11.7945 0
1 0 -11.7945 0
1 3.93151 -11.7945 0
1 7.86303 -11.7945 0
1 -11.7945 -7.86303 0
1 -7.86303 -7.86303 0
1 -3.93151 -7.86303 0
1 0 -7.86303 0
1 3.93151 -7.86303 0
1 7.86303 -7.86303 0
1 11.7945 -7.86303 0
1 -11.7945 -3.93151 0
1 -7.86303 -3.93151 0
1 -3.93151 -3.93151 0
1 0 -3.93151 0
1 3.93151 -3.93151 0
1 7.86303 -3.93151 0
1 11.7945 -3.93151 0
1 -11.7945 0 0
1 -7.86303 0 0
1 -3.93151 0 0
1 0 0 0
1 3.93151 0 0
1 7.86303 0 0
1 11.7945 0 0
1 -11.7945 3.93151 0
1 -7.86303 3.93151 0
1 -3.93151 3.93151 0
1 0 3.93151 0
1 3.93151 3.93151 0
1 7.86303 3.93151 0
1 11.7945 3.93151 0
1 -11.7945 7.86303 0
1 -7.86303 7.86303 0
1 -3.93151 7.86303 0
1 0 7.86303 0
1 3.93151 7.86303 0
1 7.86303 7.86303 0
1 11.7945 7.86303 0
1 -7.86303 11.7945 0
1 -3.93151 11.7945 0
1 0 11.7945 0
1 3.93151 11.7945 0
1 7.86303 11.7945 0
2 -7.86303 -11.7945 3.93151
2 -3.93151 -11.7945 3.93151
2 0 -11.7945 3.93151
2 3.93151 -11.7945 3.93151
2 7.86303 -11.7945 3.93151
2 -11.7945 -7.86303 3.93151
2 -7.86303 -7.86303 3.93151
2 -3.93151 -7.86303 3.93151
2 0 -7.86303 3.93151
2 3.93151 -7.86303 3.93151
2 7.86303 -7.86303 3.93151
2 11.7945 -7.86303 3.93151
2 -11.7945 -3.93151 3.93151
2 -7.86303 -3.93151 3.93151
2 -3.93151 -3.93151 3.93151
2 0 -3.93151 3.93151
2 3.93151 -3.93151 3.93151
2 7.86303 -3.93151 3.93151
2 11.7945 -3.93151 3.93151
2 -11.7945 0 3.93151
2 -7.86303 0 3.93151
2 -3.93151 0 3.93151
2 0 0 3.93151
2 3.93151 0 3.93151
2 7.86303 0 3.93151
2 11.7945 0 3.93151
2 -11.7945 3.93151 3.93151
2 -7.86303 3.93151 3.93151
2 -3.93151 3.93151 3.93151
2 0 3.93151 3.93151
2 3.93151 3.93151 3.93151
2 7.86303 3.93151 3.93151
2 11.7945 3.93151 3.93151
2 -11.7945 7.86303 3.93151
2 -7.86303 7.86303 3.93151
2 -3.93151 7.86303 3.93151
2 0 7.86303 3.93151
2 3.93151 7.86303 3.93151
2 7.86303 7.86303 3.93151
2 11.7945 7.86303 3.93151
2 -7.86303 11.7945 3.93151
2 -3.93151 11.7945 3.93151
2 0 11.7945 3.93151
2 3.93151 11.7945 3.93151
2 7.86303 11.7945 3.93151
2 -3.93151 -11.7945 7.86303
2 0 -11.7945 7.86303
2 3.93151 -11.7945 7.86303
2 -7.86303 -7.86303 7.86303
2 -3.93151 -7.86303 7.86303
2 0 -7.86303 7.86303
2 3.93151 -7.86303 7.86303
2 7.86303 -7.86303 7.86303
2 -11.7945 -3.93151 7.86303
2 -7.86303 -3.93151 7.86303
2 -3.93151 -3.93151 7.86303
2 0 -3.93151 7.86303
2 3.93151 -3.93151 7.86303
2 7.86303 -3.93151 7.86303
2 11.7945 -3.93151 7.86303
2 -11.7945 0 7.86303
2 -7.86303 0 7.86303
2 -3.93151 0 7.86303
2 0 0 7.86303
2 3.93151 0 7.86303
2 7.86303 0 7.86303
2 11.7945 0 7.86303
2 -11.7945 3.93151 7.86303
2 -7.86303 3.93151 7.86303
2 -3.93151 3.93151 7.86303
2 0 3.93151 7.86303
2 3.93151 3.93151 7.86303
2 7.86303 3.93151 7.86303
2 11.7945 3.93151 7.86303
2 -7.86303 7.86303 7.86303
2 -3.93151 7.86303 7.86303
2 0 7.86303 7.86303
2 3.93151 7.86303 7.86303
2 7.86303 7.86303 7.86303
2 -3.93151 11.7945 7.86303
2 0 11.7945 7.86303
2 3.93151 11.7945 7.86303
2 -3.93151 -7.86303 11.7945
2 0 -7.86303 11.7945
2 3.93151 -7.86303 11.7945
2 -7.86303 -3.93151 11.7945
2 -3.93151 -3.93151 11.7945
2 0 -3.93151 11.7945
2 3.93151 -3.93151 11.7945
2 7.86303 -3.93151 11.7945
2 -7.86303 0 11.7945
2 -3.93151 0 11.7945
2 0 0 11.7945
2 3.93151 0 11.7945
2 7.86303 0 11.7945
2 -7.86303 3.93151 11.7945
2 -3.93151 3.93151 11.7945
2 0 3.93151 11.7945
2 3.93151 3.93151 11.7945
2 7.86303 3.93151 11.7945
2 -3.93151 7.86303 11.7945
2 0 7.86303 11.7945
2 3.93151 7.86303 11.7945
2 -5.89727 -5.89727 -11.7945
2 -1.96576 -5.89727 -11.7945
2 1.96576 -5.89727 -11.7945
2 5.89727 -5.89727 -11.7945
2 -5.89727 -1.96576 -11.7945
2 -1.96576 -1.96576 -11.7945
2 1.96576 -1.96576 -11.7945
2 5.89727 -1.96576 -11.7945
2 -5.89727 1.96576 -11.7945
2 -1.96576 1.96576 -11.7945
2 1.96576 1.96576 -11.7945
2 5.89727 1.96576 -11.7945
2 -5.89727 5.89727 -11.7945
2 -1.96576 5.89727 -11.7945
2 1.96576 5.89727 -11.7945
2 5.89727 5.89727 -11.7945
2 -5.89727 -9.82878 -7.86303
2 -1.96576 -9.82878 -7.86303
2 1.96576 -9.82878 -7.86303
2 5.89727 -9.82878 -7.86303
2 -9.82878 -5.89727 -7.86303
2 -5.89727 -5.89727 -7.86303
2 -1.96576 -5.89727 -7.86303
2 1.96576 -5.89727 -7.86303
2 5.89727 -5.89727 -7.86303
2 9.82878 -5.89727 -7.86303
2 -9.82878 -1.96576 -7.86303
2 -5.89727 -1.96576 -7.86303
2 -1.96576 -1.96576 -7.86303
2 1.96576 -1.96576 -7.86303
2 5.89727 -1.96576 -7.86303
2 9.82878 -1.96576 -7.86303
2 -9.82878 1.96576 -7.86303
2 -5.89727 1.96576 -7.86303
2 -1.96576 1.96576 -7.86303
2 1.96576 1.96576 -7.86303
2 5.89727 1.96576 -7.86303
2 9.82878 1.96576 -7.86303
2 -9.82878 5.89727 -7.86303
2 -5.89727 5.89727 -7.86303
2 -1.96576 5.89727 -7.86303
2 1.96576 5.89727 -7.86303
2 5.89727 5.89727 -7.86303
2 9.82878 5.89727 -7.86303
2 -5.89727 9.82878 -7.86303
2 -1.96576 9.82878 -7.86303
2 1.96576 9.82878 -7.86303
2 5.89727 9.82878 -7.86303
2 -1.96576 -13.7603 -3.93151
2 1.96576 -13.7603 -3.93151
2 -9.82878 -9.82878 -3.93151
2 -5.89727 -9.82878 -3.93151
2 -1.96576 -9.82878 -3.93151
2 1.96576 -9.82878 -3.93151
2 5.89727 -9.82878 -3.93151
2 9.82878 -9.82878 -3.93151
2 -9.82878 -5.89727 -3.93151
2 -5.89727 -5.89727 -3.93151
2 -1.96576 -5.89727 -3.93151
2 1.96576 -5.89727 -3.93151
2 5.89727 -5.89727 -3.93151
2 9.82878 -5.89727 -3.93151
2 -13.7603 -1.96576 -3.93151
2 -9.82878 -1.96576 -3.93151
2 -5.89727 -1.96576 -3.93151
2 -1.96576 -1.96576 -3.93151
2 1.96576 -1.96576 -3.93151
2 5.89727 -1.96576 -3.93151
2 9.82878 -1.96576 -3.93151
2 13.7603 -1.96576 -3.93151
2 -13.7603 1.96576 -3.93151
2 -9.82878 1.96576 -3.93151
2 -5.89727 1.96576 -3.93151
2 -1.96576 1.96576 -3.93151
2 1.96576 1.96576 -3.93151
2 5.89727 1.96576 -3.93151
2 9.82878 1.96576 -3.93151
2 13.7603 1.96576 -3.93151
2 -9.82878 5.89727 -3.93151
2 -5.89727 5.89727 -3.93151
2 -1.96576 5.89727 -3.93151
2 1.96576 5.89727 -3.93151
2 5.89727 5.89727 -3.93151
2 9.82878 5.89727 -3.93151
2 -9.82878 9.82878 -3.93151
2 -5.89727 9.82878 -3.93151
2 -1.96576 9.82878 -3.93151
2 1.96576 9.82878 -3.93151
2 5.89727 9.82878 -3.93151
2 9.82878 9.82878 -3.93151
2 -1.96576 13.7603 -3.93151
2 1.96576 13.7603 -3.93151
1 -5.89727 -13.7603 0
1 -1.96576 -13.7603 0
1 1.96576 -13.7603 0
1 5.89727 -13.7603 0
1 -9.82878 -9.82878 0
1 -5.89727 -9.82878 0
1 -1.96576 -9.82878 0
1 1.96576 -9.82878 0
1 5.89727 -9.82878 0
1 9.82878 -9.82878 0
1 -13.7603 -5.89727 0
1 -9.82878 -5.89727 0
1 -5.89727 -5.89727 0
1 -1.96576 -5.89727 0
1 1.96576 -5.89727 0
1 5.89727 -5.89727 0
1 9.82878 -5.89727 0
1 13.7603 -5.89727 0
1 -13.7603 -1.96576 0
1 -9.82878 -1.96576 0
1 -5.89727 -1.96576 0
1 -1.96576 -1.96576 0
1 1.96576 -1.96576 0
1 5.89727 -1.96576 0
1 9.82878 -1.96576 0
1 13.7603 -1.96576 0
1 -13.7603 1.96576 0
1 -9.82878 1.96576 0
1 -5.89727 1.96576 0
1 -1.96576 1.96576 0
1 1.96576 1.96576 0
1 5.89727 1.96576 0
1 9.82878 1.96576 0
1 13.7603 1.96576 0
1 -13.7603 5.89727 0
1 -9.82878 5.89727 0
1 -5.89727 5.89727 0
1 -1.96576 5.89727 0
1 1.96576 5.89727 0
1 5.89727 5.89727 0
1 9.82878 5.89727 0
1 13.7603 5.89727 0
1 -9.82878 9.82878 0
1 -5.89727 9.82878 0
1 -1.96576 9.82878 0
1 1.96576 9.82878 0
1 5.89727 9.82878 0
1 9.82878 9.82878 0
1 -5.89727 13.7603 0
1 -1.96576 13.7603 0
1 1.96576 13.7603 0
1 5.89727 13.7603 0
2 -1.96576 -13.7603 3.93151
2 1.96576 -13.7603 3.93151
2 -9.82878 -9.82878 3.93151
2 -5.89727 -9.82878 3.93151
2 -1.96576 -9.82878 3.93151
2 1.96576 -9.82878 3.93151
2 5.89727 -9.82878 3.93151
2 9.82878 -9.82878 3.93151
2 -9.82878 -5.89727 3.93151
2 -5.89727 -5.89727 3.93151
2 -1.96576 -5.89727 3.93151
2 1.96576 -5.89727 3.93151
2 5.89727 -5.89727 3.93151
2 9.82878 -5.89727 3.93151
2 -13.7603 -1.96576 3.93151
2 -9.82878 -1.96576 3.93151
2 -5.89727 -1.96576 3.93151
2 -1.96576 -1.96576 3.93151
2 1.96576 -1.96576 3.93151
2 5.89727 -1.96576 3.93151
2 9.82878 -1.96576 3.93151
2 13.7603 -1.96576 3.93151
2 -13.7603 1.96576 3.93151
2 -9.82878 1.96576 3.93151
2 -5.89727 1.96576 3.93151
2 -1.96576 1.96576 3.93151
2 1.96576 1.96576 3.93151
2 5.89727 1.96576 3.93151
2 9.82878 1.96576 3.93151
2 13.7603 1.96576 3.93151
2 -9.82878 5.89727 3.93151
2 -5.89727 5.89727 3.93151
2 -1.96576 5.89727 3.93151
2 1.96576 5.89727 3.93151
2 5.89727 5.89727 3.93151
2 9.82878 5.89727 3.93151
2 -9.82878 9.82878 3.93151
2 -5.89727 9.82878 3.93151
2 -1.96576 9.82878 3.93151
2 1.96576 9.82878 3.93151
2 5.89727 9.82878 3.93151
2 9.82878 9.82878 3.93151
2 -1.96576 13.7603 3.93151
2 1.96576 13.7603 3.93151
2 -5.89727 -9.82878 7.86303
2 -1.96576 -9.82878 7.86303
2 1.96576 -9.82878 7.86303
2 5.89727 -9.82878 7.86303
2 -9.82878 -5.89727 7.86303
2 -5.89727 -5.89727 7.86303
2 -1.96576 -5.89727 7.86303
2 1.96576 -5.89727 7.86303
2 5.89727 -5.89727 7.86303
2 9.82878 -5.89727 7.86303
2 -9.82878 -1.96576 7.86303
2 -5.89727 -1.96576 7.86303
2 -1.96576 -1.96576 7.86303
2 1.96576 -1.96576 7.86303
2 5.89727 -1.96576 7.86303
2 9.82878 -1.96576 7.86303
2 -9.82878 1.96576 7.86303
2 -5.89727 1.96576 7.86303
2 -1.96576 1.96576 7.86303
2 1.96576 1.96576 7.86303
2 5.89727 1.96576 7.86303
2 9.82878 1.96576 7.86303
2 -9.82878 5.89727 7.86303
2 -5.89727 5.89727 7.86303
2 -1.96576 5.89727 7.86303
2 1.96576 5.89727 7.86303
2 5.89727 5.89727 7.86303
2 9.82878 5.89727 7.86303
2 -5.89727 9.82878 7.86303
2 -1.96576 9.82878 7.86303
2 1.96576 9.82878 7.86303
2 5.89727 9.82878 7.86303
2 -5.89727 -5.89727 11.7945
2 -1.96576 -5.89727 11.7945
2 1.96576 -5.89727 11.7945
2 5.89727 -5.89727 11.7945
2 -5.89727 -1.96576 11.7945
2 -1.96576 -1.96576 11.7945
2 1.96576 -1.96576 11.7945
2 5.89727 -1.96576 11.7945
2 -5.89727 1.96576 11.7945
2 -1.96576 1.96576 11.7945
2 1.96576 1.96576 11.7945
2 5.89727 1.96576 11.7945
2 -5.89727 5.89727 11.7945
2 -1.96576 5.89727 11.7945
2 1.96576 5.89727 11.7945
2 5.89727 5.89727 11.7945
2 -5.89727 -11.7945 -5.89727
2 -1.96576 -11.7945 -5.89727
2 1.96576 -11.7945 -5.89727
2 5.89727 -11.7945 -5.89727
1 -5.89727 -11.7945 -1.96576
1 -1.96576 -11.7945 -1.96576
1 1.96576 -11.7945 -1.96576
1 5.89727 -11.7945 -1.96576
1 -5.89727 -11.7945 1.96576
1 -1.96576 -11.7945 1.96576
1 1.96576 -11.7945 1.96576
1 5.89727 -11.7945 1.96576
2 -5.89727 -11.7945 5.89727
2 -1.96576 -11.7945 5.89727
2 1.96576 -11.7945 5.89727
2 5.89727 -11.7945 5.89727
2 -5.89727 -7.86303 -9.82878
2 -1.96576 -7.86303 -9.82878
2 1.96576 -7.86303 -9.82878
2 5.89727 -7.86303 -9.82878
2 -9.82878 -7.86303 -5.89727
2 -5.89727 -7.86303 -5.89727
2 -1.96576 -7.86303 -5.89727
2 1.96576 -7.86303 -5.89727
2 5.89727 -7.86303 -5.89727
2 9.82878 -7.86303 -5.89727
1 -9.82878 -7.86303 -1.96576
1 -5.89727 -7.86303 -1.96576
1 -1.96576 -7.86303 -1.96576
1 1.96576 -7.86303 -1.96576
1 5.89727 -7.86303 -1.96576
1 9.82878 -7.86303 -1.96576
1 -9.82878 -7.86303 1.96576
1 -5.89727 -7.86303 1.96576
1 -1.96576 -7.86303 1.96576
1 1.96576 -7.86303 1.96576
1 5.89727 -7.86303 1.96576
1 9.82878 -7.86303 1.96576
2 -9.82878 -7.86303 5.89727
2 -5.89727 -7.86303 5.89727
2 -1.96576 -7.86303 5.89727
2 1.96576 -7.86303 5.89727
2 5.89727 -7.86303 5.89727
2 9.82878 -7.86303 5.89727
2 -5.89727 -7.86303 9.82878
2 -1.96576 -7.86303 9.82878
2 1.96576 -7.86303 9.82878
2 5.89727 -7.86303 9.82878
2 -1.96576 -3.93151 -13.7603
2 1.96576 -3.93151 -13.7603
2 -9.82878 -3.93151 -9.82878
2 -5.89727 -3.93151 -9.82878
2 -1.96576 -3.93151 -9.82878
2 1.96576 -3.93151 -9.82878
2 5.89727 -3.93151 -9.82878
2 9.82878 -3.93151 -9.82878
2 -9.82878 -3.93151 -5.89727
2 -5.89727 -3.93151 -5.89727
2 -1.96576 -3.93151 -5.89727
2 1.96576 -3.93151 -5.89727
2 5.89727 -3.93151 -5.89727
2 9.82878 -3.93151 -5.89727
1 -13.7603 -3.93151 -1.96576
1 -9.82878 -3.93151 -1.96576
1 -5.89727 -3.93151 -1.96576
1 -1.96576 -3.93151 -1.96576
1 1.96576 -3.93151 -1.96576
1 5.89727 -3.93151 -1.96576
1 9.82878 -3.93151 -1.96576
1 13.7603 -3.93151 -1.96576
1 -13.7603 -3.93151 1.96576
1 -9.82878 -3.93151 1.96576
1 -5.89727 -3.93151 1.96576
1 -1.96576 -3.93151 1.96576
1 1.96576 -3.93151 1.96576
1 5.89727 -3.93151 1.96576
1 9.82878 -3.93151 1.96576
1 13.7603 -3.93151 1.96576
2 -9.82878 -3.93151 5.89727
2 -5.89727 -3.93151 5.89727
2 -1.96576 -3.93151 5.89727
2 1.96576 -3.93151 5.89727
2 5.89727 -3.93151 5.89727
2 9.82878 -3.93151 5.89727
2 -9.82878 -3.93151 9.82878
2 -5.89727 -3.93151 9.82878
2 -1.96576 -3.93151 9.82878
2 1.96576 -3.93151 9.82878
2 5.89727 -3.93151 9.82878
2 9.82878 -3.93151 9.82878
2 -1.96576 -3.93151 13.7603
2 1.96576 -3.93151 13.7603
2 -5.89727 0 -13.7603
2 -1.96576 0 -13.7603
2 1.96576 0 -13.7603
2 5.89727 0 -13.7603
2 -9.82878 0 -9.82878
2 -5.89727 0 -9.82878
2 -1.96576 0 -9.82878
2 1.96576 0 -9.82878
2 5.89727 0 -9.82878
2 9.82878 0 -9.82878
2 -13.7603 0 -5.89727
2 -9.82878 0 -5.89727
2 -5.89727 0 -5.89727
2 -1.96576 0 -5.89727
2 1.96576 0 -5.89727
2 5.89727 0 -5.89727
2 9.82878 0 -5.89727
2 13.7603 0 -5.89727
1 -13.7603 0 -1.96576
1 -9.82878 0 -1.96576
1 -5.89727 0 -1.96576
1 -1.96576 0 -1.96576
1 1.96576 0 -1.96576
1 5.89727 0 -1.96576
1 9.82878 0 -1.96576
1 13.7603 0 -1.96576
1 -13.7603 0 1.96576
1 -9.82878 0 1.96576
1 -5.89727 0 1.96576
1 -1.96576 0 1.96576
1 1.96576 0 1.96576
1 5.89727 0 1.96576
1 9.82878 0 1.96576
1 13.7603 0 1.96576
2 -13.7603 0 5.89727
2 -9.82878 0 5.89727
2 -5.89727 0 5.89727
2 -1.96576 0 5.89727
2 1.96576 0 5.89727
2 5.89727 0 5.89727
2 9.82878 0 5.89727
2 13.7603 0 5.89727
2 -9.82878 0 9.82878
2 -5.89727 0 9.82878
2 -1.96576 0 9.82878
2 1.96576 0 9.82878
2 5.89727 0 9.82878
2 9.82878 0 9.82878
2 -5.89727 0 13.7603
2 -1.96576 0 13.7603
2 1.96576 0 13.7603
2 5.89727 0 13.7603
2 -1.96576 3.93151 -13.7603
2 1.96576 3.93151 -13.7603
2 -9.82878 3.93151 -9.82878
2 -5.89727 3.93151 -9.82878
2 -1.96576 3.93151 -9.82878
2 1.96576 3.93151 -9.82878
2 5.89727 3.93151 -9.82878
2 9.82878 3.93151 -9.82878
2 -9.82878 3.93151 -5.89727
2 -5.89727 3.93151 -5.89727
2 -1.96576 3.93151 -5.89727
2 1.96576 3.93151 -5.89727
2 5.89727 3.93151 -5.89727
2 9.82878 3.93151 -5.89727
1 -13.7603 3.93151 -1.96576
1 -9.82878 3.93151 -1.96576
1 -5.89727 3.93151 -1.96576
1 -1.96576 3.93151 -1.96576
1 1.96576 3.93151 -1.96576
1 5.89727 3.93151 -1.96576
1 9.82878 3.93151 -1.96576
1 13.7603 3.93151 -1.96576
1 -13.7603 3.93151 1.96576
1 -9.82878 3.93151 1.96576
1 -5.89727 3.93151 1.96576
1 -1.96576 3.93151 1.96576
1 1.96576 3.93151 1.96576
1 5.89727 3.93151 1.96576
1 9.82878 3.93151 1.96576
1 13.7603 3.93151 1.96576
2 -9.82878 3.93151 5.89727
2 -5.89727 3.93151 5.89727
2 -1.96576 3.93151 5.89727
2 1.96576 3.93151 5.89727
2 5.89727 3.93151 5.89727
2 9.82878 3.93151 5.89727
2 -9.82878 3.93151 9.82878
2 -5.89727 3.93151 9.82878
2 -1.96576 3.93151 9.82878
2 1.96576 3.93151 9.82878
2 5.89727 3.93151 9.82878
2 9.82878 3.93151 9.82878
2 -1.96576 3.93151 13.7603
2 1.96576 3.93151 13.7603
2 -5.89727 7.86303 -9.82878
2 -1.96576 7.86303 -9.82878
2 1.96576 7.86303 -9.82878
2 5.89727 7.86303 -9.82878
2 -9.82878 7.86303 -5.89727
2 -5.89727 7.86303 -5.89727
2 -1.96576 7.86303 -5.89727
2 1.96576 7.86303 -5.89727
2 5.89727 7.86303 -5.89727
2 9.82878 7.86303 -5.89727
1 -9.82878 7.86303 -1.96576
1 -5.89727 7.86303 -1.96576
1 -1.96576 7.86303 -1.96576
1 1.96576 7.86303 -1.96576
1 5.89727 7.86303 -1.96576
1 9.82878 7.86303 -1.96576
1 -9.82878 7.86303 1.96576
1 -5.89727 7.86303 1.96576
1 -1.96576 7.86303 1.96576
1 1.96576 7.86303 1.96576
1 5.89727 7.86303 1.96576
1 9.82878 7.86303 1.96576
2 -9.82878 7.86303 5.89727
2 -5.89727 7.86303 5.89727
2 -1.96576 7.86303 5.89727
2 1.96576 7.86303 5.89727
2 5.89727 7.86303 5.89727
2 9.82878 7.86303 5.89727
2 -5.89727 7.86303 9.82878
2 -1.96576 7.86303 9.82878
2 1.96576 7.86303 9.82878
2 5.89727 7.86303 9.82878
2 -5.89727 11.7945 -5.89727
2 -1.96576 11.7945 -5.89727
2 1.96576 11.7945 -5.89727
2 5.89727 11.7945 -5.89727
1 -5.89727 11.7945 -1.96576
1 -1.96576 11.7945 -1.96576
1 1.96576 11.7945 -1.96576
1 5.89727 11.7945 -1.96576
1 -5.89727 11.7945 1.96576
1 -1.96576 11.7945 1.96576
1 1.96576 11.7945 1.96576
1 5.89727 11.7945 1.96576
2 -5.89727 11.7945 5.89727
2 -1.96576 11.7945 5.89727
2 1.96576 11.7945 5.89727
2 5.89727 11.7945 5.89727
2 -11.7945 -5.89727 -5.89727
2 -11.7945 -1.96576 -5.89727
2 -11.7945 1.96576 -5.89727
2 -11.7945 5.89727 -5.89727
1 -11.7945 -5.89727 -1.96576
1 -11.7945 -1.96576 -1.96576
1 -11.7945 1.96576 -1.96576
1 -11.7945 5.89727 -1.96576
1 -11.7945 -5.89727 1.96576
1 -11.7945 -1.96576 1.96576
1 -11.7945 1.96576 1.96576
1 -11.7945 5.89727 1.96576
2 -11.7945 -5.89727 5.89727
2 -11.7945 -1.96576 5.89727
2 -11.7945 1.96576 5.89727
2 -11.7945 5.89727 5.89727
2 -7.86303 -5.89727 -9.82878
2 -7.86303 -1.96576 -9.82878
2 -7.86303 1.96576 -9.82878
2 -7.86303 5.89727 -9.82878
2 -7.86303 -9.82878 -5.89727
2 -7.86303 -5.89727 -5.89727
2 -7.86303 -1.96576 -5.89727
2 -7.86303 1.96576 -5.89727
2 -7.86303 5.89727 -5.89727
2 -7.86303 9.82878 -5.89727
1 -7.86303 -9.82878 -1.96576
1 -7.86303 -5.89727 -1.96576
1 -7.86303 -1.96576 -1.96576
1 -7.86303 1.96576 -1.96576
1 -7.86303 5.89727 -1.96576
1 -7.86303 9.82878 -1.96576
1 -7.86303 -9.82878 1.96576
1 -7.86303 -5.89727 1.96576
1 -7.86303 -1.96576 1.96576
1 -7.86303 1.96576 1.96576
1 -7.86303 5.89727 1.96576
1 -7.86303 9.82878 1.96576
2 -7.86303 -9.82878 5.89727
2 -7.86303 -5.89727 5.89727
2 -7.86303 -1.96576 5.89727
2 -7.86303 1.96576 5.89727
2 -7.86303 5.89727 5.89727
2 -7.86303 9.82878 5.89727
2 -7.86303 -5.89727 9.82878
2 -7.86303 -1.96576 9.82878
2 -7.86303 1.96576 9.82878
2 -7.86303 5.89727 9.82878
2 -3.93151 -1.96576 -13.7603
2 -3.93151 1.96576 -13.7603
2 -3.93151 -9.82878 -9.82878
2 -3.93151 -5.89727 -9.82878
2 -3.93151 -1.96576 -9.82878
2 -3.93151 1.96576 -9.82878
2 -3.93151 5.89727 -9.82878
2 -3.93151 9.82878 -9.82878
2 -3.93151 -9.82878 -5.89727
2 -3.93151 -5.89727 -5.89727
2 -3.93151 -1.96576 -5.89727
2 -3.93151 1.96576 -5.89727
2 -3.93151 5.89727 -5.89727
2 -3.93151 9.82878 -5.89727
1 -3.93151 -13.7603 -1.96576
1 -3.93151 -9.82878 -1.96576
1 -3.93151 -5.89727 -1.96576
1 -3.93151 -1.96576 -1.96576
1 -3.93151 1.96576 -1.96576
1 -3.93151 5.89727 -1.96576
1 -3.93151 9.82878 -1.96576
1 -3.93151 13.7603 -1.96576
1 -3.93151 -13.7603 1.96576
1 -3.93151 -9.82878 1.96576
1 -3.93151 -5.89727 1.96576
1 -3.93151 -1.96576 1.96576
1 -3.93151 1.96576 1.96576
1 -3.93151 5.89727 1.96576
1 -3.93151 9.82878 1.96576
1 -3.93151 13.7603 1.96576
2 -3.93151 -9.82878 5.89727
2 -3.93151 -5.89727 5.89727
2 -3.93151 -1.96576 5.89727
2 -3.93151 1.96576 5.89727
2 -3.93151 5.89727 5.89727
2 -3.93151 9.82878 5.89727
2 -3.93151 -9.82878 9.82878
2 -3.93151 -5.89727 9.82878
2 -3.93151 -1.96576 9.82878
2 -3.93151 1.96576 9.82878
2 -3.93151 5.89727 9.82878
2 -3.93151 9.82878 9.82878
2 -3.93151 -1.96576 13.7603
2 -3.93151 1.96576 13.7603
2 0 -5.89727 -13.7603
2 0 -1.96576 -13.7603
2 0 1.96576 -13.7603
2 0 5.89727 -13.7603
2 0 -9.82878 -9.82878
2 0 -5.89727 -9.82878
2 0 -1.96576 -9.82878
2 0 1.96576 -9.82878
2 0 5.89727 -9.82878
2 0 9.82878 -9.82878
2 0 -13.7603 -5.89727
2 0 -9.82878 -5.89727
2 0 -5.89727 -5.89727
2 0 -1.96576 -5.89727
2 0 1.96576 -5.89727
2 0 5.89727 -5.89727
2 0 9.82878 -5.89727
2 0 13.7603 -5.89727
1 0 -13.7603 -1.96576
1 0 -9.82878 -1.96576
1 0 -5.89727 -1.96576
1 0 -1.96576 -1.96576
1 0 1.96576 -1.96576
1 0 5.89727 -1.96576
1 0 9.82878 -1.96576
1 0 13.7603 -1.96576
1 0 -13.7603 1.96576
1 0 -9.82878 1.96576
1 0 -5.89727 1.96576
1 0 -1.96576 1.96576
1 0 1.96576 1.96576
1 0 5.89727 1.96576
1 0 9.82878 1.96576
1 0 13.7603 1.96576
2 0 -13.7603 5.89727
2 0 -9.82878 5.89727
2 0 -5.89727 5.89727
2 0 -1.96576 5.89727
2 0 1.96576 5.89727
2 0 5.89727 5.89727
2 0 9.82878 5.89727
2 0 13.7603 5.89727
2 0 -9.82878 9.82878
2 0 -5.89727 9.82878
2 0 -1.96576 9.82878
2 0 1.96576 9.82878
2 0 5.89727 9.82878
2 0 9.82878 9.82878
2 0 -5.89727 13.7603
2 0 -1.96576 13.7603
2 0 1.96576 13.7603
2 0 5.89727 13.7603
2 3.93151 -1.96576 -13.7603
2 3.93151 1.96576 -13.7603
2 3.93151 -9.82878 -9.82878
2 3.93151 -5.89727 -9.82878
2 3.93151 -1.96576 -9.82878
2 3.93151 1.96576 -9.82878
2 3.93151 5.89727 -9.82878
2 3.93151 9.82878 -9.82878
2 3.93151 -9.82878 -5.89727
2 3.93151 -5.89727 -5.89727
2 3.93151 -1.96576 -5.89727
2 3.93151 1.96576 -5.89727
2 3.93151 5.89727 -5.89727
2 3.93151 9.82878 -5.89727
1 3.93151 -13.7603 -1.96576
1 3.93151 -9.82878 -1.96576
1 3.93151 -5.89727 -1.96576
1 3.93151 -1.96576 -1.96576
1 3.93151 1.96576 -1.96576
1 3.93151 5.89727 -1.96576
1 3.93151 9.82878 -1.96576
1 3.93151 13.7603 -1.96576
1 3.93151 -13.7603 1.96576
1 3.93151 -9.82878 1.96576
1 3.93151 -5.89727 1.96576
1 3.93151 -1.96576 1.96576
1 3.93151 1.96576 1.96576
1 3.93151 5.89727 1.96576
1 3.93151 9.82878 1.96576
1 3.93151 13.7603 1.96576
2 3.93151 -9.82878 5.89727
2 3.93151 -5.89727 5.89727
2 3.93151 -1.96576 5.89727
2 3.93151 1.96576 5.89727
2 3.93151 5.89727 5.89727
2 3.93151 9.82878 5.89727
2 3.93151 -9.82878 9.82878
2 3.93151 -5.89727 9.82878
2 3.93151 -1.96576 9.82878
2 3.93151 1.96576 9.82878
2 3.93151 5.89727 9.82878
2 3.93151 9.82878 9.82878
2 3.93151 -1.96576 13.7603
2 3.93151 1.96576 13.7603
2 7.86303 -5.89727 -9.82878
2 7.86303 -1.96576 -9.82878
2 7.86303 1.96576 -9.82878
2 7.86303 5.89727 -9.82878
2 7.86303 -9.82878 -5.89727
2 7.86303 -5.89727 -5.89727
2 7.86303 -1.96576 -5.89727
2 7.86303 1.96576 -5.89727
2 7.86303 5.89727 -5.89727
2 7.86303 9.82878 -5.89727
1 7.86303 -9.82878 -1.96576
1 7.86303 -5.89727 -1.96576
1 7.86303 -1.96576 -1.96576
1 7.86303 1.96576 -1.96576
1 7.86303 5.89727 -1.96576
1 7.86303 9.82878 -1.96576
1 7.86303 -9.82878 1.96576
1 7.86303 -5.89727 1.96576
1 7.86303 -1.96576 1.96576
1 7.86303 1.96576 1.96576
1 7.86303 5.89727 1.96576
1 7.86303 9.82878 1.96576
2 7.86303 -9.82878 5.89727
2 7.86303 -5.89727 5.89727
2 7.86303 -1.96576 5.89727
2 7.86303 1.96576 5.89727
2 7.86303 5.89727 5.89727
2 7.86303 9.82878 5.89727
2 7.86303 -5.89727 9.82878
2 7.86303 -1.96576 9.82878
2 7.86303 1.96576 9.82878
2 7.86303 5.89727 9.82878
2 11.7945 -5.89727 -5.89727
2 11.7945 -1.96576 -5.89727
2 11.7945 1.96576 -5.89727
2 11.7945 5.89727 -5.89727
1 11.7945 -5.89727 -1.96576
1 11.7945 -1.96576 -1.96576
1 11.7945 1.96576 -1.96576
1 11.7945 5.89727 -1.96576
1 11.7945 -5.89727 1.96576
1 11.7945 -1.96576 1.96576
1 11.7945 1.96576 1.96576
1 11.7945 5.89727 1.96576
2 11.7945 -5.89727 5.89727
2 11.7945 -1.96576 5.89727
2 11.7945 1.96576 5.89727
2 11.7945 5.89727 5.89727
959
 Atoms. Timestep: 10
2 -3.92453 -7.73755 -11.5749
2 0.0320591 -7.63019 -11.5868
2 4.07416 -7.68594 -11.4509
2 -7.63894 -4.09865 -11.4493
2 -3.79236 -3.79091 -11.6224
2 0.0171149 -3.96685 -11.7418
2 3.8302 -4.00118 -11.637
2 7.73995 -3.60525 -11.4517
2 -7.60659 0.0955698 -11.5233
2 -3.96086 0.105772 -11.8642
2 0.0518043 0.0259625 -11.7027
2 3.97813 0.0373345 -11.8973
2 7.70457 0.0161441 -11.5538
2 -7.69149 3.86156 -11.4535
2 -3.91124 3.83724 -11.6198
2 -0.132253 3.84473 -11.8959
2 3.94279 3.88485 -11.883
2 7.92278 3.67514 -11.4643
2 -3.97036 7.72621 -11.4288
2 0.0559393 7.75307 -11.6833
2 3.8594 7.76133 -11.4546
2 -3.8688 -11.4491 -7.59894
2 0.00135031 -11.634 -7.60893
2 3.98812 -11.5089 -7.61303
2 -7.71046 -7.89967 -7.74538
2 -4.10124 -7.94291 -7.75789
2 -0.0425596 -8.05679 -7.80308
2 3.91112 -7.76687 -7.90048
2 7.73476 -7.69453 -7.7192
2 -11.52 -3.94784 -7.6307
2 -7.92026 -3.96464 -8.12276
2 -3.88544 -3.90654 -7.92525
2 0.0675042 -3.8741 -7.71301
2 3.89224 -3.96144 -7.9034
2 7.91295 -4.02789 -7.97406
2 11.6011 -3.98392 -7.64478
2 -11.543 0.118444 -7.55241
2 -7.90629 -0.147638 -7.95208
2 -3.96763 -0.102559 -7.72806
2 -0.0279605 -0.0839114 -7.90892
2 3.87064 -0.0501683 -7.82821
2 7.81963 -0.0573737 -7.90752
2 11.679 -0.140043 -7.83871
2 -11.3173 3.99384 -7.82726
2 -7.96121 4.00317 -7.92736
2 -3.96141 3.87122 -7.86367
2 -0.0883714 3.84574 -7.89036
2 3.86676 3.98615 -7.73959
2 7.73091 3.80285 -7.75564
2 11.3099 3.92018 -7.76574
2 -7.70968 7.83858 -7.75115
2 -3.86166 7.89875 -7.94377
2 -0.0348368 7.95008 -7.77027
2 4.02366 7.9112 -7.8714
2 7.60502 7.86428 -7.6176
2 -4.0359 11.4584 -7.75976
2 0.0523085 11.6805 -7.64699
2 4.01423 11.6826 -7.86671
2 -7.5785 -11.2594 -3.70273
2 -3.83828 -11.4506 -3.42514
2 -0.0225481 -11.9136 -3.80142
2 3.91894 -11.427 -3.21069
2 7.37346 -11.3355 -3.67513
2 -11.2343 -7.53543 -3.74748
2 -7.96049 -8.05058 -3.73724
2 -4.02372 -7.45669 -3.2451
2 -0.163517 -8.24501 -3.44687
2 3.92694 -7.80757 -3.87506
2 7.79788 -7.89602 -3.86089
2 11.2165 -7.62047 -3.6347
2 -11.4598 -3.80278 -3.60116
2 -7.85528 -3.79142 -3.63342
2 -3.83416 -4.05915 -3.59042
2 0.0529042 -4.02772 -3.39571
2 4.06464 -3.8353 -3.6404
2 8.20383 -3.84593 -3.6691
2 11.77 -3.81325 -3.46468
2 -11.8707 -0.0373873 -3.75015
2 -7.94919 -0.0373414 -3.56601
2 -4.07956 0.169302 -3.49603
2 -0.0654758 -0.0183531 -3.45955
2 3.83659 -0.231709 -3.79471
2 7.75094 -0.132331 -3.66525
2 11.8408 -0.314187 -3.63595
2 -11.5831 3.51827 -3.38754
2 -7.90051 3.96038 -3.64361
2 -4.01847 3.73819 -3.582
2 -0.512141 4.03695 -3.31473
2 4.1289 3.89126 -3.70937
2 7.84059 3.91177 -3.68204
2 11.6885 3.95183 -3.78635
2 -11.1147 7.61805 -3.40727
2 -7.92396 7.97624 -3.50094
2 -4.13184 7.8056 -3.72885
2 0.0640237 7.77008 -3.66961
2 3.78881 8.03373 -3.63687
2 7.70882 7.92108 -3.52837
2 11.3178 7.61104 -3.76861
2 -7.6771 11.2053 -3.93915
2 -3.86044 11.5561 -3.51679
2 -0.0162972 11.8963 -3.85401
2 4.10242 11.6255 -3.50278
2 7.58912 11.3887 -3.75584
1 -7.78826 -11.7178 0.0839202
1 -4.00245 -11.79 -0.0711235
1 -0.0559999 -11.7787 0.0567166
1 3.96484 -11.7187 0.071597
1 7.88201 -11.7958 0.0215118
1 -11.7349 -7.78688 -0.0819589
1 -7.92154 -7.97638 -0.0305215
1 -3.90961 -7.85415 -0.0209299
1 -0.00667739 -7.75311 0.0320284
1 3.94858 -7.88862 0.00534546
1 7.81201 -7.89451 -0.0291066
1 11.6424 -7.89881 0.0759891
1 -11.8501 -3.98936 -0.119365
1 -7.85598 -3.88081 -0.0480092
1 -3.93516 -4.00712 -0.0825304
1 0.00976787 -3.89713 -0.0420239
1 3.95361 -3.88418 0.0669235
1 7.91218 -3.85457 0.0168742
1 11.8637 -3.99394 -0.0686227
1 -11.8142 -0.0195674 -0.0180273
1 -7.78235 0.0184602 -0.0202103
1 -3.94702 0.0472287 0.00704219
1 0.0227808 -0.0281344 -0.0930771
1 3.95857 -0.0220989 0.00442029
1 7.90829 0.029332 -0.0118244
1 11.8658 0.0187811 0.020554
1 -11.7652 3.90921 -0.0472676
1 -7.85338 3.94344 0.0543321
1 -3.87107 3.92475 0.0655186
1 -0.0189914 3.87477 0.0213052
1 3.90454 3.96315 -0.0612374
1 7.91392 3.96095 -0.0372071
1 11.8559 3.90478 -0.0165371
1 -11.8155 7.71101 -0.0088917
1 -7.79154 7.86733 0.0750991
1 -3.87493 7.8953 -0.039753
1 -0.0107813 7.8426 -0.0843815
1 3.99899 7.92874 0.0241323
1 7.92694 7.93845 0.0237293
1 11.7527 7.71819 0.0456826
1 -7.77497 11.7784 0.0800325
1 -3.87849 11.816 0.0279514
1 0.0415181 11.8141 0.0297532
1 3.90073 11.8446 0.0442589
1 7.83155 11.7352 -0.0261484
2 -7.58493 -11.5974 3.70938
2 -3.99954 -11.3244 3.31238
2 -0.0984091 -11.7211 3.92307
2 4.00106 -11.6578 3.40272
2 7.65507 -11.2557 3.63088
2 -11.4608 -7.71192 3.50654
2 -7.98028 -8.11439 3.5774
2 -3.89324 -7.8932 3.75955
2 -0.304232 -7.98581 3.57196
2 4.25436 -8.00923 3.74313
2 7.82169 -7.74321 3.63367
2 11.4102 -7.74148 3.78897
2 -11.6897 -3.79219 3.41943
2 -7.80079 -3.79097 3.63597
2 -3.89315 -4.12332 3.85227
2 0.312681 -3.98796 2.99679
2 3.91158 -3.74763 3.45227
2 7.66263 -4.00989 3.45866
2 11.7423 -3.86447 3.92908
2 -12.0367 0.228662 3.52574
2 -7.68328 -0.00485156 3.64001
2 -3.7464 0.0965256 3.35538
2 0.0203378 -0.0156693 3.64478
2 4.07534 0.0321861 3.43814
2 7.87339 -0.0489552 3.78822
2 11.7978 0.173581 3.47324
2 -11.6319 3.77898 3.71035
2 -7.99789 3.79364 3.85374
2 -3.84703 4.22856 3.64869
2 -0.0086114 4.04227 3.90244
2 4.05935 4.19305 3.5205
2 7.58462 3.93063 3.33196
2 11.5229 3.84499 3.62139
2 -11.2556 7.23582 3.55096
2 -7.81428 8.03681 3.34644
2 -4.00223 7.97048 3.69484
2 -0.135757 7.80089 3.61127
2 3.8853 8.37639 3.28923
2 8.11375 7.84391 3.42314
2 11.3907 7.61672 3.8087
2 -7.63851 11.1993 3.73642
2 -3.86129 11.7039 3.51786
2 0.0523681 11.8298 3.4654