959
 Atoms. Timestep: 0
1 -3.93151 -7.86303 -11.7945
1 0 -7.86303 -11.7945
1 3.93151 -7.86303 -11.7945
1 -7.86303 -3.93151 -11.7945
1 -3.93151 -3.93151 -11.7945
1 0 -3.93151 -11.7945
1 3.93151 -3.93151 -11.7945
1 7.86303 -3.93151 -11.7945
1 -7.86303 0 -11.7945
1 -3.93151 0 -11.7945
1 0 0 -11.7945
1 3.93151 0 -11.7945
1 7.86303 0 -11.7945
1 -7.86303 3.93151 -11.7945
1 -3.93151 3.93151 -11.7945
1 0 3.93151 -11.7945
1 3.93151 3.93151 -11.7945
1 7.86303 3.93151 -11.7945
1 -3.93151 7.86303 -11.7945
1 0 7.86303 -11.7945
1 3.93151 7.86303 -11.7945
1 -3.93151 -11.7945 -7.86303
1 0 -11.7945 -7.86303
1 3.93151 -11.7945 -7.86303
1 -7.86303 -7.86303 -7.86303
1 -3.93151 -7.86303 -7.86303
1 0 -7.86303 -7.86303
1 3.93151 -7.86303 -7.86303
1 7.86303 -7.86303 -7.86303
1 -11.7945 -3.93151 -7.86303
1 -7.86303 -3.93151 -7.86303
1 -3.93151 -3.93151 -7.86303
1 0 -3.93151 -7.86303
1 3.93151 -3.93151 -7.86303
1 7.86303 -3.93151 -7.86303
1 11.7945 -3.93151 -7.86303
1 -11.7945 0 -7.86303
1 -7.86303 0 -7.86303
1 -3.93151 0 -7.86303
1 0 0 -7.86303
1 3.93151 0 -7.86303
1 7.86303 0 -7.86303
1 11.7945 0 -7.86303
1 -11.7945 3.93151 -7.86303
1 -7.86303 3.93151 -7.86303
1 -3.93151 3.93151 -7.86303
1 0 3.93151 -7.86303
1 3.93151 3.93151 -7.86303
1 7.86303 3.93151 -7.86303
1 11.7945 3.93151 -7.86303
1 -7.86303 7.86303 -7.86303
1 -3.93151 7.86303 -7.86303
1 0 7.86303 -7.86303
1 3.93151 7.86303 -7.86303
1 7.86303 7.86303 -7.86303
1 -3.93151 11.7945 -7.86303
1 0 11.7945 -7.86303
1 3.93151 11.7945 -7.86303
1 -7.86303 -11.7945 -3.93151
1 -3.93151 -11.7945 -3.93151
1 0 -11.7945 -3.93151
1 3.93151 -11.7945 -3.93151
1 7.86303 -11.7945 -3.93151
1 -11.7945 -7.86303 -3.93151
1 -7.86303 -7.86303 -3.93151
1 -3.93151 -7.86303 -3.93151
1 0 -7.86303 -3.93151
1 3.93151 -7.86303 -3.93151
1 7.86303 -7.86303 -3.93151
1 11.7945 -7.86303 -3.93151
1 -11.7945 -3.93151 -3.93151
1 -7.86303 -3.93151 -3.93151
1 -3.93151 -3.93151 -3.93151
1 0 -3.93151 -3.93151
1 3.93151 -3.93151 -3.93151
1 7.86303 -3.93151 -3.93151
1 11.7945 -3.93151 -3.93151
1 -11.7945 0 -3.93151
1 -7.86303 0 -3.93151
1 -3.93151 0 -3.93151
1 0 0 -3.93151
1 3.93151 0 -3.93151
1 7.86303 0 -3.93151
1 11.7945 0 -3.93151
1 -11.7945 3.93151 -3.93151
1 -7.86303 3.93151 -3.93151
1 -3.93151 3.93151 -3.93151
1 0 3.93151 -3.93151
1 3.93151 3.93151 -3.93151
1 7.86303 3.93151 -3.93151
1 11.7945 3.93151 -3.93151
1 -11.7945 7.86303 -3.93151
1 -7.86303 7.86303 -3.93151
1 -3.93151 7.86303 -3.93151
1 0 7.86303 -3.93151
1 3.93151 7.86303 -3.93151
1 7.86303 7.86303 -3.93151
1 11.7945 7.86303 -3.93151
1 -7.86303 11.7945 -3.93151
1 -3.93151 11.7945 -3.93151
1 0 11.7945 -3.93151
1 3.93151 11.7945 -3.93151
1 7.86303 11.7945 -3.93151
1 -7.86303 -11.7945 0
1 -3.93151 -11.7945 0
1 0 -11.7945 0
1 3.93151 -11.7945 0
1 7.86303 -11.7945 0
1 -11.7945 -7.86303 0
1 -7.86303 -7.86303 0
1 -3.93151 -7.86303 0
1 0 -7.86303 0
1 3.93151 -7.86303 0
1 7.86303 -7.86303 0
1 11.7945 -7.86303 0
1 -11.7945 -3.93151 0
1 -7.86303 -3.93151 0
1 -3.93151 -3.93151 0
1 0 -3.93151 0
1 3.93151 -3.93151 0
1 7.86303 -3.93151 0
1 11.7945 -3.93151 0
1 -11.7945 0 0
1 -7.86303 0 0
1 -3.93151 0 0
1 0 0 0
1 3.93151 0 0
1 7.86303 0 0
1 11.7945 0 0
1 -11.7945 3.93151 0
1 -7.86303 3.93151 0
1 -3.93151 3.93151 0
1 0 3.93151 0
1 3.93151 3.93151 0
1 7.86303 3.93151 0
1 11.7945 3.93151 0
1 -11.7945 7.86303 0
1 -7.86303 7.86303 0
1 -3.93151 7.86303 0
1 0 7.86303 0
1 3.93151 7.86303 0
1 7.86303 7.86303 0
1 11.7945 7.86303 0
1 -7.86303 11.7945 0
1 -3.93151 11.7945 0
1 0 11.7945 0
1 3.93151 11.7945 0
1 7.86303 11.7945 0
2 -7.86303 -11.7945 3.93151
2 -3.93151 -11.7945 3.93151
2 0 -11.7945 3.93151
2 3.93151 -11.7945 3.93151
2 7.86303 -11.7945 3.93151
2 -11.7945 -7.86303 3.93151
2 -7.86303 -7.86303 3.93151
2 -3.93151 -7.86303 3.93151
2 0 -7.86303 3.93151
2 3.93151 -7.86303 3.93151
2 7.86303 -7.86303 3.93151
2 11.7945 -7.86303 3.93151
2 -11.7945 -3.93151 3.93151
2 -7.86303 -3.93151 3.93151
2 -3.93151 -3.93151 3.93151
2 0 -3.93151 3.93151
2 3.93151 -3.93151 3.93151
2 7.86303 -3.93151 3.93151
2 11.7945 -3.93151 3.93151
2 -11.7945 0 3.93151
2 -7.86303 0 3.93151
2 -3.93151 0 3.93151
2 0 0 3.93151
2 3.93151 0 3.93151
2 7.86303 0 3.93151
2 11.7945 0 3.93151
2 -11.7945 3.93151 3.93151
2 -7.86303 3.93151 3.93151
2 -3.93151 3.93151 3.93151
2 0 3.93151 3.93151
2 3.93151 3.93151 3.93151
2 7.86303 3.93151 3.93151
2 11.7945 3.93151 3.93151
2 -11.7945 7.86303 3.93151
2 -7.86303 7.86303 3.93151
2 -3.93151 7.86303 3.93151
2 0 7.86303 3.93151
2 3.93151 7.86303 3.93151
2 7.86303 7.86303 3.93151
2 11.7945 7.86303 3.93151
2 -7.86303 11.7945 3.93151
2 -3.93151 11.7945 3.93151
2 0 11.7945 3.93151
2 3.93151 11.7945 3.93151
2 7.86303 11.7945 3.93151
2 -3.93151 -11.7945 7.86303
2 0 -11.7945 7.86303
2 3.93151 -11.7945 7.86303
2 -7.86303 -7.86303 7.86303
2 -3.93151 -7.86303 7.86303
2 0 -7.86303 7.86303
2 3.93151 -7.86303 7.86303
2 7.86303 -7.86303 7.86303
2 -11.7945 -3.93151 7.86303
2 -7.86303 -3.93151 7.86303
2 -3.93151 -3.93151 7.86303
2 0 -3.93151 7.86303
2 3.93151 -3.93151 7.86303
2 7.86303 -3.93151 7.86303
2 11.7945 -3.93151 7.86303
2 -11.7945 0 7.86303
2 -7.86303 0 7.86303
2 -3.93151 0 7.86303
2 0 0 7.86303
2 3.93151 0 7.86303
2 7.86303 0 7.86303
2 11.7945 0 7.86303
2 -11.7945 3.93151 7.86303
2 -7.86303 3.93151 7.86303
2 -3.93151 3.93151 7.86303
2 0 3.93151 7.86303
2 3.93151 3.93151 7.86303
2 7.86303 3.93151 7.86303
2 11.7945 3.93151 7.86303
2 -7.86303 7.86303 7.86303
2 -3.93151 7.86303 7.86303
2 0 7.86303 7.86303
2 3.93151 7.86303 7.86303
2 7.86303 7.86303 7.86303
2 -3.93151 11.7945 7.86303
2 0 11.7945 7.86303
2 3.93151 11.7945 7.86303
2 -3.93151 -7.86303 11.7945
2 0 -7.86303 11.7945
2 3.93151 -7.86303 11.7945
2 -7.86303 -3.93151 11.7945
2 -3.93151 -3.93151 11.7945
2 0 -3.93151 11.7945
2 3.93151 -3.93151 11.7945
2 7.86303 -3.93151 11.7945
2 -7.86303 0 11.7945
2 -3.93151 0 11.7945
2 0 0 11.7945
2 3.93151 0 11.7945
2 7.86303 0 11.7945
2 -7.86303 3.93151 11.7945
2 -3.93151 3.93151 11.7945
2 0 3.93151 11.7945
2 3.93151 3.93151 11.7945
2 7.86303 3.93151 11.7945
2 -3.93151 7.86303 11.7945
2 0 7.86303 11.7945
2 3.93151 7.86303 11.7945
1 -5.89727 -5.89727 -11.7945
1 -1.96576 -5.89727 -11.7945
1 1.96576 -5.89727 -11.7945
1 5.89727 -5.89727 -11.7945
1 -5.89727 -1.96576 -11.7945
1 -1.96576 -1.96576 -11.7945
1 1.96576 -1.96576 -11.7945
1 5.89727 -1.96576 -11.7945
1 -5.89727 1.96576 -11.7945
1 -1.96576 1.96576 -11.7945
1 1.96576 1.96576 -11.7945
1 5.89727 1.96576 -11.7945
1 -5.89727 5.89727 -11.7945
1 -1.96576 5.89727 -11.7945
1 1.96576 5.89727 -11.7945
1 5.89727 5.89727 -11.7945
1 -5.89727 -9.82878 -7.86303
1 -1.96576 -9.82878 -7.86303
1 1.96576 -9.82878 -7.86303
1 5.89727 -9.82878 -7.86303
1 -9.82878 -5.89727 -7.86303
1 -5.89727 -5.89727 -7.86303
1 -1.96576 -5.89727 -7.86303
1 1.96576 -5.89727 -7.86303
1 5.89727 -5.89727 -7.86303
1 9.82878 -5.89727 -7.86303
1 -9.82878 -1.96576 -7.86303
1 -5.89727 -1.96576 -7.86303
1 -1.96576 -1.96576 -7.86303
1 1.96576 -1.96576 -7.86303
1 5.89727 -1.96576 -7.86303
1 9.82878 -1.96576 -7.86303
1 -9.82878 1.96576 -7.86303
1 -5.89727 1.96576 -7.86303
1 -1.96576 1.96576 -7.86303
1 1.96576 1.96576 -7.86303
1 5.89727 1.96576 -7.86303
1 9.82878 1.96576 -7.86303
1 -9.82878 5.89727 -7.86303
1 -5.89727 5.89727 -7.86303
1 -1.96576 5.89727 -7.86303
1 1.96576 5.89727 -7.86303
1 5.89727 5.89727 -7.86303
1 9.82878 5.89727 -7.86303
1 -5.89727 9.82878 -7.86303
1 -1.96576 9.82878 -7.86303
1 1.96576 9.82878 -7.86303
1 5.89727 9.82878 -7.86303
1 -1.96576 -13.7603 -3.93151
1 1.96576 -13.7603 -3.93151
1 -9.82878 -9.82878 -3.93151
1 -5.89727 -9.82878 -3.93151
1 -1.96576 -9.82878 -3.93151
1 1.96576 -9.82878 -3.93151
1 5.89727 -9.82878 -3.93151
1 9.82878 -9.82878 -3.93151
1 -9.82878 -5.89727 -3.93151
1 -5.89727 -5.89727 -3.93151
1 -1.96576 -5.89727 -3.93151
1 1.96576 -5.89727 -3.93151
1 5.89727 -5.89727 -3.93151
1 9.82878 -5.89727 -3.93151
1 -13.7603 -1.96576 -3.93151
1 -9.82878 -1.96576 -3.93151
1 -5.89727 -1.96576 -3.93151
1 -1.96576 -1.96576 -3.93151
1 1.96576 -1.96576 -3.93151
1 5.89727 -1.96576 -3.93151
1 9.82878 -1.96576 -3.93151
1 13.7603 -1.96576 -3.93151
1 -13.7603 1.96576 -3.93151
1 -9.82878 1.96576 -3.93151
1 -5.89727 1.96576 -3.93151
1 -1.96576 1.96576 -3.93151
1 1.96576 1.96576 -3.93151
1 5.89727 1.96576 -3.93151
1 9.82878 1.96576 -3.93151
1 13.7603 1.96576 -3.93151
1 -9.82878 5.89727 -3.93151
1 -5.89727 5.89727 -3.93151
1 -1.96576 5.89727 -3.93151
1 1.96576 5.89727 -3.93151
1 5.89727 5.89727 -3.93151
1 9.82878 5.89727 -3.93151
1 -9.82878 9.82878 -3.93151
1 -5.89727 9.82878 -3.93151
1 -1.96576 9.82878 -3.93151
1 1.96576 9.82878 -3.93151
1 5.89727 9.82878 -3.93151
1 9.82878 9.82878 -3.93151
1 -1.96576 13.7603 -3.93151
1 1.96576 13.7603 -3.93151
1 -5.89727 -13.7603 0
1 -1.96576 -13.7603 0
1 1.96576 -13.7603 0
1 5.89727 -13.7603 0
1 -9.82878 -9.82878 0
1 -5.89727 -9.82878 0
1 -1.96576 -9.82878 0
1 1.96576 -9.82878 0
1 5.89727 -9.82878 0
1 9.82878 -9.82878 0
1 -13.7603 -5.89727 0
1 -9.82878 -5.89727 0
1 -5.89727 -5.89727 0
1 -1.96576 -5.89727 0
1 1.96576 -5.89727 0
1 5.89727 -5.89727 0
1 9.82878 -5.89727 0
1 13.7603 -5.89727 0
1 -13.7603 -1.96576 0
1 -9.82878 -1.96576 0
1 -5.89727 -1.96576 0
1 -1.96576 -1.96576 0
1 1.96576 -1.96576 0
1 5.89727 -1.96576 0
1 9.82878 -1.96576 0
1 13.7603 -1.96576 0
1 -13.7603 1.96576 0
1 -9.82878 1.96576 0
1 -5.89727 1.96576 0
1 -1.96576 1.96576 0
1 1.96576 1.96576 0
1 5.89727 1.96576 0
1 9.82878 1.96576 0
1 13.7603 1.96576 0
1 -13.7603 5.89727 0
1 -9.82878 5.89727 0
1 -5.89727 5.89727 0
1 -1.96576 5.89727 0
1 1.96576 5.89727 0
1 5.89727 5.89727 0
1 9.82878 5.89727 0
1 13.7603 5.89727 0
1 -9.82878 9.82878 0
1 -5.89727 9.82878 0
1 -1.96576 9.82878 0
1 1.96576 9.82878 0
1 5.89727 9.82878 0
1 9.82878 9.82878 0
1 -5.89727 13.7603 0
1 -1.96576 13.7603 0
1 1.96576 13.7603 0
1 5.89727 13.7603 0
2 -1.96576 -13.7603 3.93151
2 1.96576 -13.7603 3.93151
2 -9.82878 -9.82878 3.93151
2 -5.89727 -9.82878 3.93151
2 -1.96576 -9.82878 3.93151
2 1.96576 -9.82878 3.93151
2 5.89727 -9.82878 3.93151
2 9.82878 -9.82878 3.93151
2 -9.82878 -5.89727 3.93151
2 -5.89727 -5.89727 3.93151
2 -1.96576 -5.89727 3.93151
2 1.96576 -5.89727 3.93151
2 5.89727 -5.89727 3.93151
2 9.82878 -5.89727 3.93151
2 -13.7603 -1.96576 3.93151
2 -9.82878 -1.96576 3.93151
2 -5.89727 -1.96576 3.93151
2 -1.96576 -1.96576 3.93151
2 1.96576 -1.96576 3.93151
2 5.89727 -1.96576 3.93151
2 9.82878 -1.96576 3.93151
2 13.7603 -1.96576 3.93151
2 -13.7603 1.96576 3.93151
2 -9.82878 1.96576 3.93151
2 -5.89727 1.96576 3.93151
2 -1.96576 1.96576 3.93151
2 1.96576 1.96576 3.93151
2 5.89727 1.96576 3.93151
2 9.82878 1.96576 3.93151
2 13.7603 1.96576 3.93151
2 -9.82878 5.89727 3.93151
2 -5.89727 5.89727 3.93151
2 -1.96576 5.89727 3.93151
2 1.96576 5.89727 3.93151
2 5.89727 5.89727 3.93151
2 9.82878 5.89727 3.93151
2 -9.82878 9.82878 3.93151
2 -5.89727 9.82878 3.93151
2 -1.96576 9.82878 3.93151
2 1.96576 9.82878 3.93151
2 5.89727 9.82878 3.93151
2 9.82878 9.82878 3.93151
2 -1.96576 13.7603 3.93151
2 1.96576 13.7603 3.93151
2 -5.89727 -9.82878 7.86303
2 -1.96576 -9.82878 7.86303
2 1.96576 -9.82878 7.86303
2 5.89727 -9.82878 7.86303
2 -9.82878 -5.89727 7.86303
2 -5.89727 -5.89727 7.86303
2 -1.96576 -5.89727 7.86303
2 1.96576 -5.89727 7.86303
2 5.89727 -5.89727 7.86303
2 9.82878 -5.89727 7.86303
2 -9.82878 -1.96576 7.86303
2 -5.89727 -1.96576 7.86303
2 -1.96576 -1.96576 7.86303
2 1.96576 -1.96576 7.86303
2 5.89727 -1.96576 7.86303
2 9.82878 -1.96576 7.86303
2 -9.82878 1.96576 7.86303
2 -5.89727 1.96576 7.86303
2 -1.96576 1.96576 7.86303
2 1.96576 1.96576 7.86303
2 5.89727 1.96576 7.86303
2 9.82878 1.96576 7.86303
2 -9.82878 5.89727 7.86303
2 -5.89727 5.89727 7.86303
2 -1.96576 5.89727 7.86303
2 1.96576 5.89727 7.86303
2 5.89727 5.89727 7.86303
2 9.82878 5.89727 7.86303
2 -5.89727 9.82878 7.86303
2 -1.96576 9.82878 7.86303
2 1.96576 9.82878 7.86303
2 5.89727 9.82878 7.86303
2 -5.89727 -5.89727 11.7945
2 -1.96576 -5.89727 11.7945
2 1.96576 -5.89727 11.7945
2 5.89727 -5.89727 11.7945
2 -5.89727 -1.96576 11.7945
2 -1.96576 -1.96576 11.7945
2 1.96576 -1.96576 11.7945
2 5.89727 -1.96576 11.7945
2 -5.89727 1.96576 11.7945
2 -1.96576 1.96576 11.7945
2 1.96576 1.96576 11.7945
2 5.89727 1.96576 11.7945
2 -5.89727 5.89727 11.7945
2 -1.96576 5.89727 11.7945
2 1.96576 5.89727 11.7945
2 5.89727 5.89727 11.7945
1 -5.89727 -11.7945 -5.89727
1 -1.96576 -11.7945 -5.89727
1 1.96576 -11.7945 -5.89727
1 5.89727 -11.7945 -5.89727
1 -5.89727 -11.7945 -1.96576
1 -1.96576 -11.7945 -1.96576
1 1.96576 -11.7945 -1.96576
1 5.89727 -11.7945 -1.96576
2 -5.89727 -11.7945 1.96576
2 -1.96576 -11.7945 1.96576
2 1.96576 -11.7945 1.96576
2 5.89727 -11.7945 1.96576
2 -5.89727 -11.7945 5.89727
2 -1.96576 -11.7945 5.89727
2 1.96576 -11.7945 5.89727
2 5.89727 -11.7945 5.89727
1 -5.89727 -7.86303 -9.82878
1 -1.96576 -7.86303 -9.82878
1 1.96576 -7.86303 -9.82878
1 5.89727 -7.86303 -9.82878
1 -9.82878 -7.86303 -5.89727
1 -5.89727 -7.86303 -5.89727
1 -1.96576 -7.86303 -5.89727
1 1.96576 -7.86303 -5.89727
1 5.89727 -7.86303 -5.89727
1 9.82878 -7.86303 -5.89727
1 -9.82878 -7.86303 -1.96576
1 -5.89727 -7.86303 -1.96576
1 -1.96576 -7.86303 -1.96576
1 1.96576 -7.86303 -1.96576
1 5.89727 -7.86303 -1.96576
1 9.82878 -7.86303 -1.96576
2 -9.82878 -7.86303 1.96576
2 -5.89727 -7.86303 1.96576
2 -1.96576 -7.86303 1.96576
2 1.96576 -7.86303 1.96576
2 5.89727 -7.86303 1.96576
2 9.82878 -7.86303 1.96576
2 -9.82878 -7.86303 5.89727
2 -5.89727 -7.86303 5.89727
2 -1.96576 -7.86303 5.89727
2 1.96576 -7.86303 5.89727
2 5.89727 -7.86303 5.89727
2 9.82878 -7.86303 5.89727
2 -5.89727 -7.86303 9.82878
2 -1.96576 -7.86303 9.82878
2 1.96576 -7.86303 9.82878
2 5.89727 -7.86303 9.82878
1 -1.96576 -3.93151 -13.7603
1 1.96576 -3.93151 -13.7603
1 -9.82878 -3.93151 -9.82878
1 -5.89727 -3.93151 -9.82878
1 -1.96576 -3.93151 -9.82878
1 1.96576 -3.93151 -9.82878
1 5.89727 -3.93151 -9.82878
1 9.82878 -3.93151 -9.82878
1 -9.82878 -3.93151 -5.89727
1 -5.89727 -3.93151 -5.89727
1 -1.96576 -3.93151 -5.89727
1 1.96576 -3.93151 -5.89727
1 5.89727 -3.93151 -5.89727
1 9.82878 -3.93151 -5.89727
1 -13.7603 -3.93151 -1.96576
1 -9.82878 -3.93151 -1.96576
1 -5.89727 -3.93151 -1.96576
1 -1.96576 -3.93151 -1.96576
1 1.96576 -3.93151 -1.96576
1 5.89727 -3.93151 -1.96576
1 9.82878 -3.93151 -1.96576
1 13.7603 -3.93151 -1.96576
2 -13.7603 -3.93151 1.96576
2 -9.82878 -3.93151 1.96576
2 -5.89727 -3.93151 1.96576
2 -1.96576 -3.93151 1.96576
2 1.96576 -3.93151 1.96576
2 5.89727 -3.93151 1.96576
2 9.82878 -3.93151 1.96576
2 13.7603 -3.93151 1.96576
2 -9.82878 -3.93151 5.89727
2 -5.89727 -3.93151 5.89727
2 -1.96576 -3.93151 5.89727
2 1.96576 -3.93151 5.89727
2 5.89727 -3.93151 5.89727
2 9.82878 -3.93151 5.89727
2 -9.82878 -3.93151 9.82878
2 -5.89727 -3.93151 9.82878
2 -1.96576 -3.93151 9.82878
2 1.96576 -3.93151 9.82878
2 5.89727 -3.93151 9.82878
2 9.82878 -3.93151 9.82878
2 -1.96576 -3.93151 13.7603
2 1.96576 -3.93151 13.7603
1 -5.89727 0 -13.7603
1 -1.96576 0 -13.7603
1 1.96576 0 -13.7603
1 5.89727 0 -13.7603
1 -9.82878 0 -9.82878
1 -5.89727 0 -9.82878
1 -1.96576 0 -9.82878
1 1.96576 0 -9.82878
1 5.89727 0 -9.82878
1 9.82878 0 -9.82878
1 -13.7603 0 -5.89727
1 -9.82878 0 -5.89727
1 -5.89727 0 -5.89727
1 -1.96576 0 -5.89727
1 1.96576 0 -5.89727
1 5.89727 0 -5.89727
1 9.82878 0 -5.89727
1 13.7603 0 -5.89727
1 -13.7603 0 -1.96576
1 -9.82878 0 -1.96576
1 -5.89727 0 -1.96576
1 -1.96576 0 -1.96576
1 1.96576 0 -1.96576
1 5.89727 0 -1.96576
1 9.82878 0 -1.96576
1 13.7603 0 -1.96576
2 -13.7603 0 1.96576
2 -9.82878 0 1.96576
2 -5.89727 0 1.96576
2 -1.96576 0 1.96576
2 1.96576 0 1.96576
2 5.89727 0 1.96576
2 9.82878 0 1.96576
2 13.7603 0 1.96576
2 -13.7603 0 5.89727
2 -9.82878 0 5.89727
2 -5.89727 0 5.89727
2 -1.96576 0 5.89727
2 1.96576 0 5.89727
2 5.89727 0 5.89727
2 9.82878 0 5.89727
2 13.7603 0 5.89727
2 -9.82878 0 9.82878
2 -5.89727 0 9.82878
2 -1.96576 0 9.82878
2 1.96576 0 9.82878
2 5.89727 0 9.82878
2 9.82878 0 9.82878
2 -5.89727 0 13.7603
2 -1.96576 0 13.7603
2 1.96576 0 13.7603
2 5.89727 0 13.7603
1 -1.96576 3.93151 -13.7603
1 1.96576 3.93151 -13.7603
1 -9.82878 3.93151 -9.82878
1 -5.89727 3.93151 -9.82878
1 -1.96576 3.93151 -9.82878
1 1.96576 3.93151 -9.82878
1 5.89727 3.93151 -9.82878
1 9.82878 3.93151 -9.82878
1 -9.82878 3.93151 -5.89727
1 -5.89727 3.93151 -5.89727
1 -1.96576 3.93151 -5.89727
1 1.96576 3.93151 -5.89727
1 5.89727 3.93151 -5.89727
1 9.82878 3.93151 -5.89727
1 -13.7603 3.93151 -1.96576
1 -9.82878 3.93151 -1.96576
1 -5.89727 3.93151 -1.96576
1 -1.96576 3.93151 -1.96576
1 1.96576 3.93151 -1.96576
1 5.89727 3.93151 -1.96576
1 9.82878 3.93151 -1.96576
1 13.7603 3.93151 -1.96576
2 -13.7603 3.93151 1.96576
2 -9.82878 3.93151 1.96576
2 -5.89727 3.93151 1.96576
2 -1.96576 3.93151 1.96576
2 1.96576 3.93151 1.96576
2 5.89727 3.93151 1.96576
2 9.82878 3.93151 1.96576
2 13.7603 3.93151 1.96576
2 -9.82878 3.93151 5.89727
2 -5.89727 3.93151 5.89727
2 -1.96576 3.93151 5.89727
2 1.96576 3.93151 5.89727
2 5.89727 3.93151 5.89727
2 9.82878 3.93151 5.89727
2 -9.82878 3.93151 9.82878
2 -5.89727 3.93151 9.82878
2 -1.96576 3.93151 9.82878
2 1.96576 3.93151 9.82878
2 5.89727 3.93151 9.82878
2 9.82878 3.93151 9.82878
2 -1.96576 3.93151 13.7603
2 1.96576 3.93151 13.7603
1 -5.89727 7.86303 -9.82878
1 -1.96576 7.86303 -9.82878
1 1.96576 7.86303 -9.82878
1 5.89727 7.86303 -9.82878
1 -9.82878 7.86303 -5.89727
1 -5.89727 7.86303 -5.89727
1 -1.96576 7.86303 -5.89727
1 1.96576 7.86303 -5.89727
1 5.89727 7.86303 -5.89727
1 9.82878 7.86303 -5.89727
1 -9.82878 7.86303 -1.96576
1 -5.89727 7.86303 -1.96576
1 -1.96576 7.86303 -1.96576
1 1.96576 7.86303 -1.96576
1 5.89727 7.86303 -1.96576
1 9.82878 7.86303 -1.96576
2 -9.82878 7.86303 1.96576
2 -5.89727 7.86303 1.96576
2 -1.96576 7.86303 1.96576
2 1.96576 7.86303 1.96576
2 5.89727 7.86303 1.96576
2 9.82878 7.86303 1.96576
2 -9.82878 7.86303 5.89727
2 -5.89727 7.86303 5.89727
2 -1.96576 7.86303 5.89727
2 1.96576 7.86303 5.89727
2 5.89727 7.86303 5.89727
2 9.82878 7.86303 5.89727
2 -5.89727 7.86303 9.82878
2 -1.96576 7.86303 9.82878
2 1.96576 7.86303 9.82878
2 5.89727 7.86303 9.82878
1 -5.89727 11.7945 -5.89727
1 -1.96576 11.7945 -5.89727
1 1.96576 11.7945 -5.89727
1 5.89727 11.7945 -5.89727
1 -5.89727 11.7945 -1.96576
1 -1.96576 11.7945 -1.96576
1 1.96576 11.7945 -1.96576
1 5.89727 11.7945 -1.96576
2 -5.89727 11.7945 1.96576
2 -1.96576 11.7945 1.96576
2 1.96576 11.7945 1.96576
2 5.89727 11.7945 1.96576
2 -5.89727 11.7945 5.89727
2 -1.96576 11.7945 5.89727
2 1.96576 11.7945 5.89727
2 5.89727 11.7945 5.89727
1 -11.7945 -5.89727 -5.89727
1 -11.7945 -1.96576 -5.89727
1 -11.7945 1.96576 -5.89727
1 -11.7945 5.89727 -5.89727
1 -11.7945 -5.89727 -1.96576
1 -11.7945 -1.96576 -1.96576
1 -11.7945 1.96576 -1.96576
1 -11.7945 5.89727 -1.96576
2 -11.7945 -5.89727 1.96576
2 -11.7945 -1.96576 1.96576
2 -11.7945 1.96576 1.96576
2 -11.7945 5.89727 1.96576
2 -11.7945 -5.89727 5.89727
2 -11.7945 -1.96576 5.89727
2 -11.7945 1.96576 5.89727
2 -11.7945 5.89727 5.89727
1 -7.86303 -5.89727 -9.82878
1 -7.86303 -1.96576 -9.82878
1 -7.86303 1.96576 -9.82878
1 -7.86303 5.89727 -9.82878
1 -7.86303 -9.82878 -5.89727
1 -7.86303 -5.89727 -5.89727
1 -7.86303 -1.96576 -5.89727
1 -7.86303 1.96576 -5.89727
1 -7.86303 5.89727 -5.89727
1 -7.86303 9.82878 -5.89727
1 -7.86303 -9.82878 -1.96576
1 -7.86303 -5.89727 -1.96576
1 -7.86303 -1.96576 -1.96576
1 -7.86303 1.96576 -1.96576
1 -7.86303 5.89727 -1.96576
1 -7.86303 9.82878 -1.96576
2 -7.86303 -9.82878 1.96576
2 -7.86303 -5.89727 1.96576
2 -7.86303 -1.96576 1.96576
2 -7.86303 1.96576 1.96576
2 -7.86303 5.89727 1.96576
2 -7.86303 9.82878 1.96576
2 -7.86303 -9.82878 5.89727
2 -7.86303 -5.89727 5.89727
2 -7.86303 -1.96576 5.89727
2 -7.86303 1.96576 5.89727
2 -7.86303 5.89727 5.89727
2 -7.86303 9.82878 5.89727
2 -7.86303 -5.89727 9.82878
2 -7.86303 -1.96576 9.82878
2 -7.86303 1.96576 9.82878
2 -7.86303 5.89727 9.82878
1 -3.93151 -1.96576 -13.7603
1 -3.93151 1.96576 -13.7603
1 -3.93151 -9.82878 -9.82878
1 -3.93151 -5.89727 -9.82878
1 -3.93151 -1.96576 -9.82878
1 -3.93151 1.96576 -9.82878
1 -3.93151 5.89727 -9.82878
1 -3.93151 9.82878 -9.82878
1 -3.93151 -9.82878 -5.89727
1 -3.93151 -5.89727 -5.89727
1 -3.93151 -1.96576 -5.89727
1 -3.93151 1.96576 -5.89727
1 -3.93151 5.89727 -5.89727
1 -3.93151 9.82878 -5.89727
1 -3.93151 -13.7603 -1.96576
1 -3.93151 -9.82878 -1.96576
1 -3.93151 -5.89727 -1.96576
1 -3.93151 -1.96576 -1.96576
1 -3.93151 1.96576 -1.96576
1 -3.93151 5.89727 -1.96576
1 -3.93151 9.82878 -1.96576
1 -3.93151 13.7603 -1.96576
2 -3.93151 -13.7603 1.96576
2 -3.93151 -9.82878 1.96576
2 -3.93151 -5.89727 1.96576
2 -3.93151 -1.96576 1.96576
2 -3.93151 1.96576 1.96576
2 -3.93151 5.89727 1.96576
2 -3.93151 9.82878 1.96576
2 -3.93151 13.7603 1.96576
2 -3.93151 -9.82878 5.89727
2 -3.93151 -5.89727 5.89727
2 -3.93151 -1.96576 5.89727
2 -3.93151 1.96576 5.89727
2 -3.93151 5.89727 5.89727
2 -3.93151 9.82878 5.89727
2 -3.93151 -9.82878 9.82878
2 -3.93151 -5.89727 9.82878
2 -3.93151 -1.96576 9.82878
2 -3.93151 1.96576 9.82878
2 -3.93151 5.89727 9.82878
2 -3.93151 9.82878 9.82878
2 -3.93151 -1.96576 13.7603
2 -3.93151 1.96576 13.7603
1 0 -5.89727 -13.7603
1 0 -1.96576 -13.7603
1 0 1.96576 -13.7603
1 0 5.89727 -13.7603
1 0 -9.82878 -9.82878
1 0 -5.89727 -9.82878
1 0 -1.96576 -9.82878
1 0 1.96576 -9.82878
1 0 5.89727 -9.82878
1 0 9.82878 -9.82878
1 0 -13.7603 -5.89727
1 0 -9.82878 -5.89727
1 0 -5.89727 -5.89727
1 0 -1.96576 -5.89727
1 0 1.96576 -5.89727
1 0 5.89727 -5.89727
1 0 9.82878 -5.89727
1 0 13.7603 -5.89727
1 0 -13.7603 -1.96576
1 0 -9.82878 -1.96576
1 0 -5.89727 -1.96576
1 0 -1.96576 -1.96576
1 0 1.96576 -1.96576
1 0 5.89727 -1.96576
1 0 9.82878 -1.96576
1 0 13.7603 -1.96576
2 0 -13.7603 1.96576
2 0 -9.82878 1.96576
2 0 -5.89727 1.96576
2 0 -1.96576 1.96576
2 0 1.96576 1.96576
2 0 5.89727 1.96576
2 0 9.82878 1.96576
2 0 13.7603 1.96576
2 0 -13.7603 5.89727
2 0 -9.82878 5.89727
2 0 -5.89727 5.89727
2 0 -1.96576 5.89727
2 0 1.96576 5.89727
2 0 5.89727 5.89727
2 0 9.82878 5.89727
2 0 13.7603 5.89727
2 0 -9.82878 9.82878
2 0 -5.89727 9.82878
2 0 -1.96576 9.82878
2 0 1.96576 9.82878
2 0 5.89727 9.82878
2 0 9.82878 9.82878
2 0 -5.89727 13.7603
2 0 -1.96576 13.7603
2 0 1.96576 13.7603
2 0 5.89727 13.7603
1 3.93151 -1.96576 -13.7603
1 3.93151 1.96576 -13.7603
1 3.93151 -9.82878 -9.82878
1 3.93151 -5.89727 -9.82878
1 3.93151 -1.96576 -9.82878
1 3.93151 1.96576 -9.82878
1 3.93151 5.89727 -9.82878
1 3.93151 9.82878 -9.82878
1 3.93151 -9.82878 -5.89727
1 3.93151 -5.89727 -5.89727
1 3.93151 -1.96576 -5.89727
1 3.93151 1.96576 -5.89727
1 3.93151 5.89727 -5.89727
1 3.93151 9.82878 -5.89727
1 3.93151 -13.7603 -1.96576
1 3.93151 -9.82878 -1.96576
1 3.93151 -5.89727 -1.96576
1 3.93151 -1.96576 -1.96576
1 3.93151 1.96576 -1.96576
1 3.93151 5.89727 -1.96576
1 3.93151 9.82878 -1.96576
1 3.93151 13.7603 -1.96576
2 3.93151 -13.7603 1.96576
2 3.93151 -9.82878 1.96576
2 3.93151 -5.89727 1.96576
2 3.93151 -1.96576 1.96576
2 3.93151 1.96576 1.96576
2 3.93151 5.89727 1.96576
2 3.93151 9.82878 1.96576
2 3.93151 13.7603 1.96576
2 3.93151 -9.82878 5.89727
2 3.93151 -5.89727 5.89727
2 3.93151 -1.96576 5.89727
2 3.93151 1.96576 5.89727
2 3.93151 5.89727 5.89727
2 3.93151 9.82878 5.89727
2 3.93151 -9.82878 9.82878
2 3.93151 -5.89727 9.82878
2 3.93151 -1.96576 9.82878
2 3.93151 1.96576 9.82878
2 3.93151 5.89727 9.82878
2 3.93151 9.82878 9.82878
2 3.93151 -1.96576 13.7603
2 3.93151 1.96576 13.7603
1 7.86303 -5.89727 -9.82878
1 7.86303 -1.96576 -9.82878
1 7.86303 1.96576 -9.82878
1 7.86303 5.89727 -9.82878
1 7.86303 -9.82878 -5.89727
1 7.86303 -5.89727 -5.89727
1 7.86303 -1.96576 -5.89727
1 7.86303 1.96576 -5.89727
1 7.86303 5.89727 -5.89727
1 7.86303 9.82878 -5.89727
1 7.86303 -9.82878 -1.96576
1 7.86303 -5.89727 -1.96576
1 7.86303 -1.96576 -1.96576
1 7.86303 1.96576 -1.96576
1 7.86303 5.89727 -1.96576
1 7.86303 9.82878 -1.96576
2 7.86303 -9.82878 1.96576
2 7.86303 -5.89727 1.96576
2 7.86303 -1.96576 1.96576
2 7.86303 1.96576 1.96576
2 7.86303 5.89727 1.96576
2 7.86303 9.82878 1.96576
2 7.86303 -9.82878 5.89727
2 7.86303 -5.89727 5.89727
2 7.86303 -1.96576 5.89727
2 7.86303 1.96576 5.89727
2 7.86303 5.89727 5.89727
2 7.86303 9.82878 5.89727
2 7.86303 -5.89727 9.82878
2 7.86303 -1.96576 9.82878
2 7.86303 1.96576 9.82878
2 7.86303 5.89727 9.82878
1 11.7945 -5.89727 -5.89727
1 11.7945 -1.96576 -5.89727
1 11.7945 1.96576 -5.89727
1 11.7945 5.89727 -5.89727
1 11.7945 -5.89727 -1.96576
1 11.7945 -1.96576 -1.96576
1 11.7945 1.96576 -1.96576
1 11.7945 5.89727 -1.96576
2 11.7945 -5.89727 1.96576
2 11.7945 -1.96576 1.96576
2 11.7945 1.96576 1.96576
2 11.7945 5.89727 1.96576
2 11.7945 -5.89727 5.89727
2 11.7945 -1.96576 5.89727
2 11.7945 1.96576 5.89727
2 11.7945 5.89727 5.89727
959
 Atoms. Timestep: 10
1 -3.9414 -7.84315 -11.7598
1 0.0168661 -7.82652 -11.7531
1 4.0329 -7.82104 -11.6905
1 -7.78539 -4.04579 -11.6901
1 -3.89302 -3.89189 -11.782
1 0.0131063 -3.96639 -11.7892
1 3.92186 -4.00437 -11.7906
1 7.84825 -3.76605 -11.6965
1 -7.81123 0.053744 -11.722
1 -3.95957 0.0587866 -11.8487
1 0.0333059 0.0132063 -11.7531
1 3.97446 0.0171267 -11.87
1 7.87303 0.0116552 -11.736
1 -7.8191 3.90949 -11.6974
1 -3.95297 3.91317 -11.7831
1 -0.0697066 3.89909 -11.8652
1 3.97541 3.94742 -11.9284
1 7.96131 3.79916 -11.6991
1 -3.97265 7.84101 -11.6799
1 0.033389 7.89312 -11.8133
1 3.91499 7.86342 -11.6957
1 -3.91315 -11.6979 -7.76235
1 0.00134013 -11.7892 -7.80838
1 3.98743 -11.7224 -7.76946
1 -7.85005 -7.9567 -7.86798
1 -4.02355 -7.91203 -7.80744
1 -0.01645 -7.96857 -7.83708
1 3.91353 -7.82103 -7.87853
1 7.86145 -7.84543 -7.84949
1 -11.7325 -3.95849 -7.77906
1 -7.89785 -3.94368 -8.00766
1 -3.90799 -3.91722 -7.89158
1 0.0359905 -3.8985 -7.77937
1 3.90801 -3.94233 -7.88794
1 7.89877 -3.97887 -7.9163
1 11.7786 -3.9785 -7.78801
1 -11.731 0.0669833 -7.77361
1 -7.89288 -0.0709057 -7.91569
1 -3.95303 -0.0493763 -7.78886
1 -0.00820565 -0.0598243 -7.88394
1 3.90264 -0.0257951 -7.846
1 7.84722 -0.0312026 -7.89019
1 11.8113 -0.0819311 -7.93757
1 -11.6155 3.98685 -7.89564
1 -7.91961 3.95605 -7.89526
1 -3.94758 3.89648 -7.85854
1 -0.0435011 3.8903 -7.87981
1 3.90115 3.95938 -7.80153
1 7.79481 3.86324 -7.79515
1 11.6138 3.94263 -7.85607
1 -7.84596 7.92141 -7.87504
1 -3.88525 7.88102 -7.89655
1 -0.0167216 7.91287 -7.81582
1 3.967 7.89298 -7.86151
1 7.80258 7.93001 -7.78602
1 -4.00511 11.6934 -7.85047
1 0.0331128 11.8103 -7.83176
1 3.99604 11.8202 -7.91258
1 -7.82621 -11.6752 -3.96164
1 -3.93893 -11.7643 -3.92028
1 -0.0126466 -11.8384 -3.98359
1 3.95601 -11.7717 -3.84889
1 7.74165 -11.7125 -3.97612
1 -11.6782 -7.77574 -4.02501
1 -7.90551 -7.92297 -3.96596
1 -3.94945 -7.75415 -3.85958
1 -0.0510858 -7.98849 -3.89816
1 3.94091 -7.85269 -4.02067
1 7.84218 -7.87703 -3.97254
1 11.678 -7.84976 -3.96543
1 -11.7794 -3.92287 -3.9906
1 -7.87867 -3.88523 -3.93424
1 -3.89727 -3.96944 -3.9276
1 -0.00465916 -3.96135 -3.87074
1 3.98107 -3.89697 -3.93635
1 7.98019 -3.86786 -3.94682
1 11.8585 -3.92919 -3.90799
1 -11.8331 -0.0158608 -3.96333
1 -7.87676 -0.0224383 -3.90457
1 -3.96637 0.0238195 -3.92214
1 -0.00792379 -0.0149872 -3.88795
1 3.90447 -0.064574 -3.98564
1 7.81254 -0.0641825 -3.94562
1 11.8459 -0.116297 -3.93131
1 -11.8014 3.85666 -3.93426
1 -7.87698 3.95947 -3.91807
1 -3.94069 3.87605 -3.88677
1 -0.164604 3.96019 -3.90255
1 3.99545 3.91385 -3.97477
1 7.86925 3.93963 -3.96032
1 11.8433 3.96999 -4.00962
1 -11.6936 7.84543 -3.90381
1 -7.87178 7.90171 -3.90073
1 -4.00105 7.85348 -3.98124
1 0.026858 7.82787 -3.92273
1 3.88277 7.90313 -3.94867
1 7.83896 7.90606 -3.91729
1 11.7112 7.85168 -3.9978
1 -7.8501 11.6334 -4.06135
1 -3.93072 11.7899 -3.94422
1 -0.00442753 11.8328 -4.00023
1 4.02478 11.8309 -3.92475
1 7.8293 11.7497 -3.98863
1 -7.73918 -11.6681 0.151647
1 -4.0216 -11.7829 0.0495268
1 -0.0746459 -11.7876 0.228263
1 3.99828 -11.7024 0.183736
1 7.84683 -11.7433 0.0788514
1 -11.7064 -7.74977 -0.0384988
1 -7.93911 -7.98735 0.100993
1 -3.91284 -7.83769 0.125184
1 -0.00280805 -7.6695 0.225703
1 3.94162 -7.89401 0.107314
1 7.81725 -7.88947 0.0717557
1 11.6024 -7.84675 0.139233
1 -11.8616 -4.01031 0.0193267
1 -7.86276 -3.88102 0.0723409
1 -3.92297 -4.02121 0.0374256
1 0.00889817 -3.8875 0.125284
1 3.95335 -3.81744 0.237556
1 7.93112 -3.84117 0.181535
1 11.8959 -4.00088 0.0872974
1 -11.7915 -0.0212528 0.124109
1 -7.76931 0.0251602 0.104284
1 -3.93653 0.08914 0.152622
1 0.0235909 -0.0639628 0.0372912
1 3.96131 -0.0209582 0.0965003
1 7.89974 0.0466176 0.105747
1 11.8746 0.0226325 0.189579
1 -11.7395 3.88997 0.0897424
1 -7.86842 3.97462 0.247584
1 -3.84277 3.91654 0.251523
1 0.012336 3.85395 0.222116
1 3.92151 3.98664 0.0629234
1 7.9096 3.95042 0.0771675
1 11.8533 3.92732 0.105916
1 -11.7768 7.68024 0.0318231
1 -7.76987 7.84542 0.215086
1 -3.87242 7.88901 0.0855533
1 -0.0350218 7.85426 0.0286727
1 4.04224 7.90522 0.196839
1 7.92154 7.96745 0.1729
1 11.7219 7.66861 0.0955328
1 -7.67616 11.7379 0.182108
1 -3.85412 11.8852 0.2189
1 0.0356344 11.8333 0.209213
1 3.87615 11.8872 0.204867
1 7.79904 11.6929 0.0227377
2 -7.70822 -11.718 3.96551
2 -3.95356 -11.5117 3.88653
2 -0.0853427 -11.7504 4.16777
2 3.96436 -11.7168 3.93457
2 7.76976 -11.4534 4.00014
2 -11.6301 -7.84473 3.79198
2 -7.92506 -8.02865 3.98732
2 -3.89974 -7.87204 4.09146
2 -0.194255 -7.92496 3.99165
2 4.15236 -7.95653 4.11751
2 7.81534 -7.79615 4.00941
2 11.5295 -7.84248 4.0247
2 -11.6917 -3.85478 3.91098
2 -7.81763 -3.8395 4.03794
2 -3.89164 -4.07753 4.13602
2 0.108309 -3.95257 3.71318
2 3.92239 -3.80803 3.95675
2 7.76653 -3.98161 3.96428
2 11.7554 -3.87849 4.16008
2 -11.9323 0.146061 3.96269
2 -7.7516 -0.011966 4.03354
2 -3.8454 0.0644823 3.87488
2 -0.00961536 -0.00424406 4.01371
2 4.01743 0.00366239 3.88947
2 7.88665 -0.0286135 4.11035
2 11.8319 0.0777101 3.96118
2 -11.6578 3.79258 4.04737
2 -7.97808 3.82486 4.13914
2 -3.86777 4.14464 4.01556
2 -0.0268506 4.0054 4.171
2 4.00849 4.12364 3.93064
2 7.69039 3.92782 3.86774
2 11.6028 3.84599 4.00307
2 -11.4255 7.4369 4.05098
2 -7.84435 7.93809 3.86042
2 -3.96351 7.9281 4.06522
2 -0.0850973 7.81404 4.019
2 3.9252 8.09011 3.92541
2 7.99317 7.88925 3.9368
2 11.5173 7.70962 4.06736
2 -7.73386 11.3772 4.0649
2 -3.88208 11.7227 3.92352
2 0.0299233 11.8163 3.90471
2 3.82723 11.6385 3.9985
2 7.75643 11.4744 3.777