959
 Atoms. Timestep: 0
2 -3.93151 -7.86303 -11.7945
2 0 -7.86303 -11.7945
2 3.93151 -7.86303 -11.7945
2 -7.86303 -3.93151 -11.7945
2 -3.93151 -3.93151 -11.7945
2 0 -3.93151 -11.7945
2 3.93151 -3.93151 -11.7945
2 7.86303 -3.93151 -11.7945
2 -7.86303 0 -11.7945
2 -3.93151 0 -11.7945
2 0 0 -11.7945
2 3.93151 0 -11.7945
2 7.86303 0 -11.7945
2 -7.86303 3.93151 -11.7945
2 -3.93151 3.93151 -11.7945
2 0 3.93151 -11.7945
2 3.93151 3.93151 -11.7945
2 7.86303 3.93151 -11.7945
2 -3.93151 7.86303 -11.7945
2 0 7.86303 -11.7945
2 3.93151 7.86303 -11.7945
2 -3.93151 -11.7945 -7.86303
2 0 -11.7945 -7.86303
2 3.93151 -11.7945 -7.86303
2 -7.86303 -7.86303 -7.86303
2 -3.93151 -7.86303 -7.86303
2 0 -7.86303 -7.86303
2 3.93151 -7.86303 -7.86303
2 7.86303 -7.86303 -7.86303
2 -11.7945 -3.93151 -7.86303
2 -7.86303 -3.93151 -7.86303
2 -3.93151 -3.93151 -7.86303
2 0 -3.93151 -7.86303
2 3.93151 -3.93151 -7.86303
2 7.86303 -3.93151 -7.86303
2 11.7945 -3.93151 -7.86303
2 -11.7945 0 -7.86303
2 -7.86303 0 -7.86303
2 -3.93151 0 -7.86303
2 0 0 -7.86303
2 3.93151 0 -7.86303
2 7.86303 0 -7.86303
2 11.7945 0 -7.86303
2 -11.7945 3.93151 -7.86303
2 -7.86303 3.93151 -7.86303
2 -3.93151 3.93151 -7.86303
2 0 3.93151 -7.86303
2 3.93151 3.93151 -7.86303
2 7.86303 3.93151 -7.86303
2 11.7945 3.93151 -7.86303
2 -7.86303 7.86303 -7.86303
2 -3.93151 7.86303 -7.86303
2 0 7.86303 -7.86303
2 3.93151 7.86303 -7.86303
2 7.86303 7.86303 -7.86303
2 -3.93151 11.7945 -7.86303
2 0 11.7945 -7.86303
2 3.93151 11.7945 -7.86303
2 -7.86303 -11.7945 -3.93151
2 -3.93151 -11.7945 -3.93151
2 0 -11.7945 -3.93151
2 3.93151 -11.7945 -3.93151
2 7.86303 -11.7945 -3.93151
2 -11.7945 -7.86303 -3.93151
2 -7.86303 -7.86303 -3.93151
2 -3.93151 -7.86303 -3.93151
2 0 -7.86303 -3.93151
2 3.93151 -7.86303 -3.93151
2 7.86303 -7.86303 -3.93151
2 11.7945 -7.86303 -3.93151
2 -11.7945 -3.93151 -3.93151
2 -7.86303 -3.93151 -3.93151
2 -3.93151 -3.93151 -3.93151
2 0 -3.93151 -3.93151
2 3.93151 -3.93151 -3.93151
2 7.86303 -3.93151 -3.93151
2 11.7945 -3.93151 -3.93151
2 -11.7945 0 -3.93151
2 -7.86303 0 -3.93151
2 -3.93151 0 -3.93151
2 0 0 -3.93151
2 3.93151 0 -3.93151
2 7.86303 0 -3.93151
2 11.7945 0 -3.93151
2 -11.7945 3.93151 -3.93151
2 -7.86303 3.93151 -3.93151
2 -3.93151 3.93151 -3.93151
2 0 3.93151 -3.93151
2 3.93151 3.93151 -3.93151
2 7.86303 3.93151 -3.93151
2 11.7945 3.93151 -3.93151
2 -11.7945 7.86303 -3.93151
2 -7.86303 7.86303 -3.93151
2 -3.93151 7.86303 -3.93151
2 0 7.86303 -3.93151
2 3.93151 7.86303 -3.93151
2 7.86303 7.86303 -3.93151
2 11.7945 7.86303 -3.93151
2 -7.86303 11.7945 -3.93151
2 -3.93151 11.7945 -3.93151
2 0 11.7945 -3.93151
2 3.93151 11.7945 -3.93151
2 7.86303 11.7945 -3.93151
2 -7.86303 -11.7945 0
2 -3.93151 -11.7945 0
2 0 -11.7945 0
2 3.93151 -11.7945 0
2 7.86303 -11.7945 0
2 -11.7945 -7.86303 0
2 -7.86303 -7.86303 0
2 -3.93151 -7.86303 0
2 0 -7.86303 0
2 3.93151 -7.86303 0
2 7.86303 -7.86303 0
2 11.7945 -7.86303 0
2 -11.7945 -3.93151 0
2 -7.86303 -3.93151 0
2 -3.93151 -3.93151 0
2 0 -3.93151 0
2 3.93151 -3.93151 0
2 7.86303 -3.93151 0
2 11.7945 -3.93151 0
2 -11.7945 0 0
2 -7.86303 0 0
2 -3.93151 0 0
2 0 0 0
2 3.93151 0 0
2 7.86303 0 0
2 11.7945 0 0
2 -11.7945 3.93151 0
2 -7.86303 3.93151 0
2 -3.93151 3.93151 0
2 0 3.93151 0
2 3.93151 3.93151 0
2 7.86303 3.93151 0
2 11.7945 3.93151 0
2 -11.7945 7.86303 0
2 -7.86303 7.86303 0
2 -3.93151 7.86303 0
2 0 7.86303 0
2 3.93151 7.86303 0
2 7.86303 7.86303 0
2 11.7945 7.86303 0
2 -7.86303 11.7945 0
2 -3.93151 11.7945 0
2 0 11.7945 0
2 3.93151 11.7945 0
2 7.86303 11.7945 0
2 -7.86303 -11.7945 3.93151
2 -3.93151 -11.7945 3.93151
2 0 -11.7945 3.93151
2 3.93151 -11.7945 3.93151
2 7.86303 -11.7945 3.93151
2 -11.7945 -7.86303 3.93151
2 -7.86303 -7.86303 3.93151
2 -3.93151 -7.86303 3.93151
2 0 -7.86303 3.93151
2 3.93151 -7.86303 3.93151
2 7.86303 -7.86303 3.93151
2 11.7945 -7.86303 3.93151
2 -11.7945 -3.93151 3.93151
2 -7.86303 -3.93151 3.93151
2 -3.93151 -3.93151 3.93151
2 0 -3.93151 3.93151
2 3.93151 -3.93151 3.93151
2 7.86303 -3.93151 3.93151
2 11.7945 -3.93151 3.93151
2 -11.7945 0 3.93151
2 -7.86303 0 3.93151
2 -3.93151 0 3.93151
2 0 0 3.93151
2 3.93151 0 3.93151
2 7.86303 0 3.93151
2 11.7945 0 3.93151
2 -11.7945 3.93151 3.93151
2 -7.86303 3.93151 3.93151
2 -3.93151 3.93151 3.93151
2 0 3.93151 3.93151
2 3.93151 3.93151 3.93151
2 7.86303 3.93151 3.93151
2 11.7945 3.93151 3.93151
2 -11.7945 7.86303 3.93151
2 -7.86303 7.86303 3.93151
2 -3.93151 7.86303 3.93151
2 0 7.86303 3.93151
2 3.93151 7.86303 3.93151
2 7.86303 7.86303 3.93151
2 11.7945 7.86303 3.93151
2 -7.86303 11.7945 3.93151
2 -3.93151 11.7945 3.93151
2 0 11.7945 3.93151
2 3.93151 11.7945 3.93151
2 7.86303 11.7945 3.93151
2 -3.93151 -11.7945 7.86303
2 0 -11.7945 7.86303
2 3.93151 -11.7945 7.86303
2 -7.86303 -7.86303 7.86303
2 -3.93151 -7.86303 7.86303
2 0 -7.86303 7.86303
2 3.93151 -7.86303 7.86303
2 7.86303 -7.86303 7.86303
2 -11.7945 -3.93151 7.86303
2 -7.86303 -3.93151 7.86303
2 -3.93151 -3.93151 7.86303
2 0 -3.93151 7.86303
2 3.93151 -3.93151 7.86303
2 7.86303 -3.93151 7.86303
2 11.7945 -3.93151 7.86303
2 -11.7945 0 7.86303
2 -7.86303 0 7.86303
2 -3.93151 0 7.86303
2 0 0 7.86303
2 3.93151 0 7.86303
2 7.86303 0 7.86303
2 11.7945 0 7.86303
2 -11.7945 3.93151 7.86303
2 -7.86303 3.93151 7.86303
2 -3.93151 3.93151 7.86303
2 0 3.93151 7.86303
2 3.93151 3.93151 7.86303
2 7.86303 3.93151 7.86303
2 11.7945 3.93151 7.86303
2 -7.86303 7.86303 7.86303
2 -3.93151 7.86303 7.86303
2 0 7.86303 7.86303
2 3.93151 7.86303 7.86303
2 7.86303 7.86303 7.86303
2 -3.93151 11.7945 7.86303
2 0 11.7945 7.86303
2 3.93151 11.7945 7.86303
2 -3.93151 -7.86303 11.7945
2 0 -7.86303 11.7945
2 3.93151 -7.86303 11.7945
2 -7.86303 -3.93151 11.7945
2 -3.93151 -3.93151 11.7945
2 0 -3.93151 11.7945
2 3.93151 -3.93151 11.7945
2 7.86303 -3.93151 11.7945
2 -7.86303 0 11.7945
2 -3.93151 0 11.7945
2 0 0 11.7945
2 3.93151 0 11.7945
2 7.86303 0 11.7945
2 -7.86303 3.93151 11.7945
2 -3.93151 3.93151 11.7945
2 0 3.93151 11.7945
2 3.93151 3.93151 11.7945
2 7.86303 3.93151 11.7945
2 -3.93151 7.86303 11.7945
2 0 7.86303 11.7945
2 3.93151 7.86303 11.7945
2 -5.89727 -5.89727 -11.7945
2 -1.96576 -5.89727 -11.7945
2 1.96576 -5.89727 -11.7945
2 5.89727 -5.89727 -11.7945
2 -5.89727 -1.96576 -11.7945
2 -1.96576 -1.96576 -11.7945
2 1.96576 -1.96576 -11.7945
2 5.89727 -1.96576 -11.7945
2 -5.89727 1.96576 -11.7945
2 -1.96576 1.96576 -11.7945
2 1.96576 1.96576 -11.7945
2 5.89727 1.96576 -11.7945
2 -5.89727 5.89727 -11.7945
2 -1.96576 5.89727 -11.7945
2 1.96576 5.89727 -11.7945
2 5.89727 5.89727 -11.7945
2 -5.89727 -9.82878 -7.86303
2 -1.96576 -9.82878 -7.86303
2 1.96576 -9.82878 -7.86303
2 5.89727 -9.82878 -7.86303
2 -9.82878 -5.89727 -7.86303
2 -5.89727 -5.89727 -7.86303
2 -1.96576 -5.89727 -7.86303
2 1.96576 -5.89727 -7.86303
2 5.89727 -5.89727 -7.86303
2 9.82878 -5.89727 -7.86303
2 -9.82878 -1.96576 -7.86303
2 -5.89727 -1.96576 -7.86303
2 -1.96576 -1.96576 -7.86303
2 1.96576 -1.96576 -7.86303
2 5.89727 -1.96576 -7.86303
2 9.82878 -1.96576 -7.86303
2 -9.82878 1.96576 -7.86303
2 -5.89727 1.96576 -7.86303
2 -1.96576 1.96576 -7.86303
2 1.96576 1.96576 -7.86303
2 5.89727 1.96576 -7.86303
2 9.82878 1.96576 -7.86303
2 -9.82878 5.89727 -7.86303
2 -5.89727 5.89727 -7.86303
2 -1.96576 5.89727 -7.86303
2 1.96576 5.89727 -7.86303
2 5.89727 5.89727 -7.86303
2 9.82878 5.89727 -7.86303
2 -5.89727 9.82878 -7.86303
2 -1.96576 9.82878 -7.86303
2 1.96576 9.82878 -7.86303
2 5.89727 9.82878 -7.86303
2 -1.96576 -13.7603 -3.93151
2 1.96576 -13.7603 -3.93151
2 -9.82878 -9.82878 -3.93151
2 -5.89727 -9.82878 -3.93151
2 -1.96576 -9.82878 -3.93151
2 1.96576 -9.82878 -3.93151
2 5.89727 -9.82878 -3.93151
2 9.82878 -9.82878 -3.93151
2 -9.82878 -5.89727 -3.93151
2 -5.89727 -5.89727 -3.93151
2 -1.96576 -5.89727 -3.93151
2 1.96576 -5.89727 -3.93151
2 5.89727 -5.89727 -3.93151
2 9.82878 -5.89727 -3.93151
2 -13.7603 -1.96576 -3.93151
2 -9.82878 -1.96576 -3.93151
2 -5.89727 -1.96576 -3.93151
2 -1.96576 -1.96576 -3.93151
2 1.96576 -1.96576 -3.93151
2 5.89727 -1.96576 -3.93151
2 9.82878 -1.96576 -3.93151
2 13.7603 -1.96576 -3.93151
2 -13.7603 1.96576 -3.93151
2 -9.82878 1.96576 -3.93151
2 -5.89727 1.96576 -3.93151
2 -1.96576 1.96576 -3.93151
2 1.96576 1.96576 -3.93151
2 5.89727 1.96576 -3.93151
2 9.82878 1.96576 -3.93151
2 13.7603 1.96576 -3.93151
2 -9.82878 5.89727 -3.93151
2 -5.89727 5.89727 -3.93151
2 -1.96576 5.89727 -3.93151
2 1.96576 5.89727 -3.93151
2 5.89727 5.89727 -3.93151
2 9.82878 5.89727 -3.93151
2 -9.82878 9.82878 -3.93151
2 -5.89727 9.82878 -3.93151
2 -1.96576 9.82878 -3.93151
2 1.96576 9.82878 -3.93151
2 5.89727 9.82878 -3.93151
2 9.82878 9.82878 -3.93151
2 -1.96576 13.7603 -3.93151
2 1.96576 13.7603 -3.93151
2 -5.89727 -13.7603 0
2 -1.96576 -13.7603 0
2 1.96576 -13.7603 0
2 5.89727 -13.7603 0
2 -9.82878 -9.82878 0
2 -5.89727 -9.82878 0
2 -1.96576 -9.82878 0
2 1.96576 -9.82878 0
2 5.89727 -9.82878 0
2 9.82878 -9.82878 0
2 -13.7603 -5.89727 0
2 -9.82878 -5.89727 0
2 -5.89727 -5.89727 0
2 -1.96576 -5.89727 0
2 1.96576 -5.89727 0
2 5.89727 -5.89727 0
2 9.82878 -5.89727 0
2 13.7603 -5.89727 0
2 -13.7603 -1.96576 0
2 -9.82878 -1.96576 0
2 -5.89727 -1.96576 0
2 -1.96576 -1.96576 0
2 1.96576 -1.96576 0
2 5.89727 -1.96576 0
2 9.82878 -1.96576 0
2 13.7603 -1.96576 0
2 -13.7603 1.96576 0
2 -9.82878 1.96576 0
2 -5.89727 1.96576 0
2 -1.96576 1.96576 0
2 1.96576 1.96576 0
2 5.89727 1.96576 0
2 9.82878 1.96576 0
2 13.7603 1.96576 0
2 -13.7603 5.89727 0
2 -9.82878 5.89727 0
2 -5.89727 5.89727 0
2 -1.96576 5.89727 0
2 1.96576 5.89727 0
2 5.89727 5.89727 0
2 9.82878 5.89727 0
2 13.7603 5.89727 0
2 -9.82878 9.82878 0
2 -5.89727 9.82878 0
2 -1.96576 9.82878 0
2 1.96576 9.82878 0
2 5.89727 9.82878 0
2 9.82878 9.82878 0
2 -5.89727 13.7603 0
2 -1.96576 13.7603 0
2 1.96576 13.7603 0
2 5.89727 13.7603 0
2 -1.96576 -13.7603 3.93151
2 1.96576 -13.7603 3.93151
2 -9.82878 -9.82878 3.93151
2 -5.89727 -9.82878 3.93151
2 -1.96576 -9.82878 3.93151
2 1.96576 -9.82878 3.93151
2 5.89727 -9.82878 3.93151
2 9.82878 -9.82878 3.93151
2 -9.82878 -5.89727 3.93151
2 -5.89727 -5.89727 3.93151
2 -1.96576 -5.89727 3.93151
2 1.96576 -5.89727 3.93151
2 5.89727 -5.89727 3.93151
2 9.82878 -5.89727 3.93151
2 -13.7603 -1.96576 3.93151
2 -9.82878 -1.96576 3.93151
2 -5.89727 -1.96576 3.93151
2 -1.96576 -1.96576 3.93151
2 1.96576 -1.96576 3.93151
2 5.89727 -1.96576 3.93151
2 9.82878 -1.96576 3.93151
2 13.7603 -1.96576 3.93151
2 -13.7603 1.96576 3.93151
2 -9.82878 1.96576 3.93151
2 -5.89727 1.96576 3.93151
2 -1.96576 1.96576 3.93151
2 1.96576 1.96576 3.93151
2 5.89727 1.96576 3.93151
2 9.82878 1.96576 3.93151
2 13.7603 1.96576 3.93151
2 -9.82878 5.89727 3.93151
2 -5.89727 5.89727 3.93151
2 -1.96576 5.89727 3.93151
2 1.96576 5.89727 3.93151
2 5.89727 5.89727 3.93151
2 9.82878 5.89727 3.93151
2 -9.82878 9.82878 3.93151
2 -5.89727 9.82878 3.93151
2 -1.96576 9.82878 3.93151
2 1.96576 9.82878 3.93151
2 5.89727 9.82878 3.93151
2 9.82878 9.82878 3.93151
2 -1.96576 13.7603 3.93151
2 1.96576 13.7603 3.93151
2 -5.89727 -9.82878 7.86303
2 -1.96576 -9.82878 7.86303
2 1.96576 -9.82878 7.86303
2 5.89727 -9.82878 7.86303
2 -9.82878 -5.89727 7.86303
2 -5.89727 -5.89727 7.86303
2 -1.96576 -5.89727 7.86303
2 1.96576 -5.89727 7.86303
2 5.89727 -5.89727 7.86303
2 9.82878 -5.89727 7.86303
2 -9.82878 -1.96576 7.86303
2 -5.89727 -1.96576 7.86303
2 -1.96576 -1.96576 7.86303
2 1.96576 -1.96576 7.86303
2 5.89727 -1.96576 7.86303
2 9.82878 -1.96576 7.86303
2 -9.82878 1.96576 7.86303
2 -5.89727 1.96576 7.86303
2 -1.96576 1.96576 7.86303
2 1.96576 1.96576 7.86303
2 5.89727 1.96576 7.86303
2 9.82878 1.96576 7.86303
2 -9.82878 5.89727 7.86303
2 -5.89727 5.89727 7.86303
2 -1.96576 5.89727 7.86303
2 1.96576 5.89727 7.86303
2 5.89727 5.89727 7.86303
2 9.82878 5.89727 7.86303
2 -5.89727 9.82878 7.86303
2 -1.96576 9.82878 7.86303
2 1.96576 9.82878 7.86303
2 5.89727 9.82878 7.86303
2 -5.89727 -5.89727 11.7945
2 -1.96576 -5.89727 11.7945
2 1.96576 -5.89727 11.7945
2 5.89727 -5.89727 11.7945
2 -5.89727 -1.96576 11.7945
2 -1.96576 -1.96576 11.7945
2 1.96576 -1.96576 11.7945
2 5.89727 -1.96576 11.7945
2 -5.89727 1.96576 11.7945
2 -1.96576 1.96576 11.7945
2 1.96576 1.96576 11.7945
2 5.89727 1.96576 11.7945
2 -5.89727 5.89727 11.7945
2 -1.96576 5.89727 11.7945
2 1.96576 5.89727 11.7945
2 5.89727 5.89727 11.7945
2 -5.89727 -11.7945 -5.89727
2 -1.96576 -11.7945 -5.89727
2 1.96576 -11.7945 -5.89727
2 5.89727 -11.7945 -5.89727
2 -5.89727 -11.7945 -1.96576
2 -1.96576 -11.7945 -1.96576
2 1.96576 -11.7945 -1.96576
2 5.89727 -11.7945 -1.96576
2 -5.89727 -11.7945 1.96576
2 -1.96576 -11.7945 1.96576
2 1.96576 -11.7945 1.96576
2 5.89727 -11.7945 1.96576
2 -5.89727 -11.7945 5.89727
2 -1.96576 -11.7945 5.89727
2 1.96576 -11.7945 5.89727
2 5.89727 -11.7945 5.89727
2 -5.89727 -7.86303 -9.82878
2 -1.96576 -7.86303 -9.82878
2 1.96576 -7.86303 -9.82878
2 5.89727 -7.86303 -9.82878
2 -9.82878 -7.86303 -5.89727
2 -5.89727 -7.86303 -5.89727
2 -1.96576 -7.86303 -5.89727
2 1.96576 -7.86303 -5.89727
2 5.89727 -7.86303 -5.89727
2 9.82878 -7.86303 -5.89727
2 -9.82878 -7.86303 -1.96576
2 -5.89727 -7.86303 -1.96576
2 -1.96576 -7.86303 -1.96576
2 1.96576 -7.86303 -1.96576
2 5.89727 -7.86303 -1.96576
2 9.82878 -7.86303 -1.96576
2 -9.82878 -7.86303 1.96576
2 -5.89727 -7.86303 1.96576
2 -1.96576 -7.86303 1.96576
2 1.96576 -7.86303 1.96576
2 5.89727 -7.86303 1.96576
2 9.82878 -7.86303 1.96576
2 -9.82878 -7.86303 5.89727
2 -5.89727 -7.86303 5.89727
2 -1.96576 -7.86303 5.89727
2 1.96576 -7.86303 5.89727
2 5.89727 -7.86303 5.89727
2 9.82878 -7.86303 5.89727
2 -5.89727 -7.86303 9.82878
2 -1.96576 -7.86303 9.82878
2 1.96576 -7.86303 9.82878
2 5.89727 -7.86303 9.82878
2 -1.96576 -3.93151 -13.7603
2 1.96576 -3.93151 -13.7603
2 -9.82878 -3.93151 -9.82878
2 -5.89727 -3.93151 -9.82878
2 -1.96576 -3.93151 -9.82878
2 1.96576 -3.93151 -9.82878
2 5.89727 -3.93151 -9.82878
2 9.82878 -3.93151 -9.82878
2 -9.82878 -3.93151 -5.89727
2 -5.89727 -3.93151 -5.89727
2 -1.96576 -3.93151 -5.89727
2 1.96576 -3.93151 -5.89727
2 5.89727 -3.93151 -5.89727
2 9.82878 -3.93151 -5.89727
2 -13.7603 -3.93151 -1.96576
2 -9.82878 -3.93151 -1.96576
2 -5.89727 -3.93151 -1.96576
2 -1.96576 -3.93151 -1.96576
2 1.96576 -3.93151 -1.96576
2 5.89727 -3.93151 -1.96576
2 9.82878 -3.93151 -1.96576
2 13.7603 -3.93151 -1.96576
2 -13.7603 -3.93151 1.96576
2 -9.82878 -3.93151 1.96576
2 -5.89727 -3.93151 1.96576
2 -1.96576 -3.93151 1.96576
2 1.96576 -3.93151 1.96576
2 5.89727 -3.93151 1.96576
2 9.82878 -3.93151 1.96576
2 13.7603 -3.93151 1.96576
2 -9.82878 -3.93151 5.89727
2 -5.89727 -3.93151 5.89727
2 -1.96576 -3.93151 5.89727
2 1.96576 -3.93151 5.89727
2 5.89727 -3.93151 5.89727
2 9.82878 -3.93151 5.89727
2 -9.82878 -3.93151 9.82878
2 -5.89727 -3.93151 9.82878
2 -1.96576 -3.93151 9.82878
2 1.96576 -3.93151 9.82878
2 5.89727 -3.93151 9.82878
2 9.82878 -3.93151 9.82878
2 -1.96576 -3.93151 13.7603
2 1.96576 -3.93151 13.7603
2 -5.89727 0 -13.7603
2 -1.96576 0 -13.7603
2 1.96576 0 -13.7603
2 5.89727 0 -13.7603
2 -9.82878 0 -9.82878
2 -5.89727 0 -9.82878
2 -1.96576 0 -9.82878
2 1.96576 0 -9.82878
2 5.89727 0 -9.82878
2 9.82878 0 -9.82878
2 -13.7603 0 -5.89727
2 -9.82878 0 -5.89727
2 -5.89727 0 -5.89727
2 -1.96576 0 -5.89727
2 1.96576 0 -5.89727
2 5.89727 0 -5.89727
2 9.82878 0 -5.89727
2 13.7603 0 -5.89727
2 -13.7603 0 -1.96576
2 -9.82878 0 -1.96576
2 -5.89727 0 -1.96576
2 -1.96576 0 -1.96576
2 1.96576 0 -1.96576
2 5.89727 0 -1.96576
2 9.82878 0 -1.96576
2 13.7603 0 -1.96576
2 -13.7603 0 1.96576
2 -9.82878 0 1.96576
2 -5.89727 0 1.96576
2 -1.96576 0 1.96576
2 1.96576 0 1.96576
2 5.89727 0 1.96576
2 9.82878 0 1.96576
2 13.7603 0 1.96576
2 -13.7603 0 5.89727
2 -9.82878 0 5.89727
2 -5.89727 0 5.89727
2 -1.96576 0 5.89727
2 1.96576 0 5.89727
2 5.89727 0 5.89727
2 9.82878 0 5.89727
2 13.7603 0 5.89727
2 -9.82878 0 9.82878
2 -5.89727 0 9.82878
2 -1.96576 0 9.82878
2 1.96576 0 9.82878
2 5.89727 0 9.82878
2 9.82878 0 9.82878
2 -5.89727 0 13.7603
2 -1.96576 0 13.7603
2 1.96576 0 13.7603
2 5.89727 0 13.7603
2 -1.96576 3.93151 -13.7603
2 1.96576 3.93151 -13.7603
2 -9.82878 3.93151 -9.82878
2 -5.89727 3.93151 -9.82878
2 -1.96576 3.93151 -9.82878
2 1.96576 3.93151 -9.82878
2 5.89727 3.93151 -9.82878
2 9.82878 3.93151 -9.82878
2 -9.82878 3.93151 -5.89727
2 -5.89727 3.93151 -5.89727
2 -1.96576 3.93151 -5.89727
2 1.96576 3.93151 -5.89727
2 5.89727 3.93151 -5.89727
2 9.82878 3.93151 -5.89727
2 -13.7603 3.93151 -1.96576
2 -9.82878 3.93151 -1.96576
2 -5.89727 3.93151 -1.96576
2 -1.96576 3.93151 -1.96576
2 1.96576 3.93151 -1.96576
2 5.89727 3.93151 -1.96576
2 9.82878 3.93151 -1.96576
2 13.7603 3.93151 -1.96576
2 -13.7603 3.93151 1.96576
2 -9.82878 3.93151 1.96576
2 -5.89727 3.93151 1.96576
2 -1.96576 3.93151 1.96576
2 1.96576 3.93151 1.96576
2 5.89727 3.93151 1.96576
2 9.82878 3.93151 1.96576
2 13.7603 3.93151 1.96576
2 -9.82878 3.93151 5.89727
2 -5.89727 3.93151 5.89727
2 -1.96576 3.93151 5.89727
2 1.96576 3.93151 5.89727
2 5.89727 3.93151 5.89727
2 9.82878 3.93151 5.89727
2 -9.82878 3.93151 9.82878
2 -5.89727 3.93151 9.82878
2 -1.96576 3.93151 9.82878
2 1.96576 3.93151 9.82878
2 5.89727 3.93151 9.82878
2 9.82878 3.93151 9.82878
2 -1.96576 3.93151 13.7603
2 1.96576 3.93151 13.7603
2 -5.89727 7.86303 -9.82878
2 -1.96576 7.86303 -9.82878
2 1.96576 7.86303 -9.82878
2 5.89727 7.86303 -9.82878
2 -9.82878 7.86303 -5.89727
2 -5.89727 7.86303 -5.89727
2 -1.96576 7.86303 -5.89727
2 1.96576 7.86303 -5.89727
2 5.89727 7.86303 -5.89727
2 9.82878 7.86303 -5.89727
2 -9.82878 7.86303 -1.96576
2 -5.89727 7.86303 -1.96576
2 -1.96576 7.86303 -1.96576
2 1.96576 7.86303 -1.96576
2 5.89727 7.86303 -1.96576
2 9.82878 7.86303 -1.96576
2 -9.82878 7.86303 1.96576
2 -5.89727 7.86303 1.96576
2 -1.96576 7.86303 1.96576
2 1.96576 7.86303 1.96576
2 5.89727 7.86303 1.96576
2 9.82878 7.86303 1.96576
2 -9.82878 7.86303 5.89727
2 -5.89727 7.86303 5.89727
2 -1.96576 7.86303 5.89727
2 1.96576 7.86303 5.89727
2 5.89727 7.86303 5.89727
2 9.82878 7.86303 5.89727
2 -5.89727 7.86303 9.82878
2 -1.96576 7.86303 9.82878
2 1.96576 7.86303 9.82878
2 5.89727 7.86303 9.82878
2 -5.89727 11.7945 -5.89727
2 -1.96576 11.7945 -5.89727
2 1.96576 11.7945 -5.89727
2 5.89727 11.7945 -5.89727
2 -5.89727 11.7945 -1.96576
2 -1.96576 11.7945 -1.96576
2 1.96576 11.7945 -1.96576
2 5.89727 11.7945 -1.96576
2 -5.89727 11.7945 1.96576
2 -1.96576 11.7945 1.96576
2 1.96576 11.7945 1.96576
2 5.89727 11.7945 1.96576
2 -5.89727 11.7945 5.89727
2 -1.96576 11.7945 5.89727
2 1.96576 11.7945 5.89727
2 5.89727 11.7945 5.89727
2 -11.7945 -5.89727 -5.89727
2 -11.7945 -1.96576 -5.89727
2 -11.7945 1.96576 -5.89727
2 -11.7945 5.89727 -5.89727
2 -11.7945 -5.89727 -1.96576
2 -11.7945 -1.96576 -1.96576
2 -11.7945 1.96576 -1.96576
2 -11.7945 5.89727 -1.96576
2 -11.7945 -5.89727 1.96576
2 -11.7945 -1.96576 1.96576
2 -11.7945 1.96576 1.96576
2 -11.7945 5.89727 1.96576
2 -11.7945 -5.89727 5.89727
2 -11.7945 -1.96576 5.89727
2 -11.7945 1.96576 5.89727
2 -11.7945 5.89727 5.89727
2 -7.86303 -5.89727 -9.82878
2 -7.86303 -1.96576 -9.82878
2 -7.86303 1.96576 -9.82878
2 -7.86303 5.89727 -9.82878
2 -7.86303 -9.82878 -5.89727
2 -7.86303 -5.89727 -5.89727
2 -7.86303 -1.96576 -5.89727
2 -7.86303 1.96576 -5.89727
2 -7.86303 5.89727 -5.89727
2 -7.86303 9.82878 -5.89727
2 -7.86303 -9.82878 -1.96576
2 -7.86303 -5.89727 -1.96576
2 -7.86303 -1.96576 -1.96576
2 -7.86303 1.96576 -1.96576
2 -7.86303 5.89727 -1.96576
2 -7.86303 9.82878 -1.96576
2 -7.86303 -9.82878 1.96576
2 -7.86303 -5.89727 1.96576
2 -7.86303 -1.96576 1.96576
2 -7.86303 1.96576 1.96576
2 -7.86303 5.89727 1.96576
2 -7.86303 9.82878 1.96576
2 -7.86303 -9.82878 5.89727
2 -7.86303 -5.89727 5.89727
2 -7.86303 -1.96576 5.89727
2 -7.86303 1.96576 5.89727
2 -7.86303 5.89727 5.89727
2 -7.86303 9.82878 5.89727
2 -7.86303 -5.89727 9.82878
2 -7.86303 -1.96576 9.82878
2 -7.86303 1.96576 9.82878
2 -7.86303 5.89727 9.82878
2 -3.93151 -1.96576 -13.7603
2 -3.93151 1.96576 -13.7603
2 -3.93151 -9.82878 -9.82878
2 -3.93151 -5.89727 -9.82878
2 -3.93151 -1.96576 -9.82878
2 -3.93151 1.96576 -9.82878
2 -3.93151 5.89727 -9.82878
2 -3.93151 9.82878 -9.82878
2 -3.93151 -9.82878 -5.89727
2 -3.93151 -5.89727 -5.89727
2 -3.93151 -1.96576 -5.89727
2 -3.93151 1.96576 -5.89727
2 -3.93151 5.89727 -5.89727
2 -3.93151 9.82878 -5.89727
2 -3.93151 -13.7603 -1.96576
2 -3.93151 -9.82878 -1.96576
2 -3.93151 -5.89727 -1.96576
2 -3.93151 -1.96576 -1.96576
2 -3.93151 1.96576 -1.96576
2 -3.93151 5.89727 -1.96576
2 -3.93151 9.82878 -1.96576
2 -3.93151 13.7603 -1.96576
2 -3.93151 -13.7603 1.96576
2 -3.93151 -9.82878 1.96576
2 -3.93151 -5.89727 1.96576
2 -3.93151 -1.96576 1.96576
2 -3.93151 1.96576 1.96576
2 -3.93151 5.89727 1.96576
2 -3.93151 9.82878 1.96576
2 -3.93151 13.7603 1.96576
2 -3.93151 -9.82878 5.89727
2 -3.93151 -5.89727 5.89727
2 -3.93151 -1.96576 5.89727
2 -3.93151 1.96576 5.89727
2 -3.93151 5.89727 5.89727
2 -3.93151 9.82878 5.89727
2 -3.93151 -9.82878 9.82878
2 -3.93151 -5.89727 9.82878
2 -3.93151 -1.96576 9.82878
2 -3.93151 1.96576 9.82878
2 -3.93151 5.89727 9.82878
2 -3.93151 9.82878 9.82878
2 -3.93151 -1.96576 13.7603
2 -3.93151 1.96576 13.7603
2 0 -5.89727 -13.7603
2 0 -1.96576 -13.7603
2 0 1.96576 -13.7603
2 0 5.89727 -13.7603
2 0 -9.82878 -9.82878
2 0 -5.89727 -9.82878
2 0 -1.96576 -9.82878
2 0 1.96576 -9.82878
2 0 5.89727 -9.82878
2 0 9.82878 -9.82878
2 0 -13.7603 -5.89727
2 0 -9.82878 -5.89727
2 0 -5.89727 -5.89727
2 0 -1.96576 -5.89727
2 0 1.96576 -5.89727
2 0 5.89727 -5.89727
2 0 9.82878 -5.89727
2 0 13.7603 -5.89727
2 0 -13.7603 -1.96576
2 0 -9.82878 -1.96576
2 0 -5.89727 -1.96576
2 0 -1.96576 -1.96576
2 0 1.96576 -1.96576
2 0 5.89727 -1.96576
2 0 9.82878 -1.96576
2 0 13.7603 -1.96576
2 0 -13.7603 1.96576
2 0 -9.82878 1.96576
2 0 -5.89727 1.96576
2 0 -1.96576 1.96576
2 0 1.96576 1.96576
2 0 5.89727 1.96576
2 0 9.82878 1.96576
2 0 13.7603 1.96576
2 0 -13.7603 5.89727
2 0 -9.82878 5.89727
2 0 -5.89727 5.89727
2 0 -1.96576 5.89727
2 0 1.96576 5.89727
2 0 5.89727 5.89727
2 0 9.82878 5.89727
2 0 13.7603 5.89727
2 0 -9.82878 9.82878
2 0 -5.89727 9.82878
2 0 -1.96576 9.82878
2 0 1.96576 9.82878
2 0 5.89727 9.82878
2 0 9.82878 9.82878
2 0 -5.89727 13.7603
2 0 -1.96576 13.7603
2 0 1.96576 13.7603
2 0 5.89727 13.7603
2 3.93151 -1.96576 -13.7603
2 3.93151 1.96576 -13.7603
2 3.93151 -9.82878 -9.82878
2 3.93151 -5.89727 -9.82878
2 3.93151 -1.96576 -9.82878
2 3.93151 1.96576 -9.82878
2 3.93151 5.89727 -9.82878
2 3.93151 9.82878 -9.82878
2 3.93151 -9.82878 -5.89727
2 3.93151 -5.89727 -5.89727
2 3.93151 -1.96576 -5.89727
2 3.93151 1.96576 -5.89727
2 3.93151 5.89727 -5.89727
2 3.93151 9.82878 -5.89727
2 3.93151 -13.7603 -1.96576
2 3.93151 -9.82878 -1.96576
2 3.93151 -5.89727 -1.96576
2 3.93151 -1.96576 -1.96576
2 3.93151 1.96576 -1.96576
2 3.93151 5.89727 -1.96576
2 3.93151 9.82878 -1.96576
2 3.93151 13.7603 -1.96576
2 3.93151 -13.7603 1.96576
2 3.93151 -9.82878 1.96576
2 3.93151 -5.89727 1.96576
2 3.93151 -1.96576 1.96576
2 3.93151 1.96576 1.96576
2 3.93151 5.89727 1.96576
2 3.93151 9.82878 1.96576
2 3.93151 13.7603 1.96576
2 3.93151 -9.82878 5.89727
2 3.93151 -5.89727 5.89727
2 3.93151 -1.96576 5.89727
2 3.93151 1.96576 5.89727
2 3.93151 5.89727 5.89727
2 3.93151 9.82878 5.89727
2 3.93151 -9.82878 9.82878
2 3.93151 -5.89727 9.82878
2 3.93151 -1.96576 9.82878
2 3.93151 1.96576 9.82878
2 3.93151 5.89727 9.82878
2 3.93151 9.82878 9.82878
2 3.93151 -1.96576 13.7603
2 3.93151 1.96576 13.7603
2 7.86303 -5.89727 -9.82878
2 7.86303 -1.96576 -9.82878
2 7.86303 1.96576 -9.82878
2 7.86303 5.89727 -9.82878
2 7.86303 -9.82878 -5.89727
2 7.86303 -5.89727 -5.89727
2 7.86303 -1.96576 -5.89727
2 7.86303 1.96576 -5.89727
2 7.86303 5.89727 -5.89727
2 7.86303 9.82878 -5.89727
2 7.86303 -9.82878 -1.96576
2 7.86303 -5.89727 -1.96576
2 7.86303 -1.96576 -1.96576
2 7.86303 1.96576 -1.96576
2 7.86303 5.89727 -1.96576
2 7.86303 9.82878 -1.96576
2 7.86303 -9.82878 1.96576
2 7.86303 -5.89727 1.96576
2 7.86303 -1.96576 1.96576
2 7.86303 1.96576 1.96576
2 7.86303 5.89727 1.96576
2 7.86303 9.82878 1.96576
2 7.86303 -9.82878 5.89727
2 7.86303 -5.89727 5.89727
2 7.86303 -1.96576 5.89727
2 7.86303 1.96576 5.89727
2 7.86303 5.89727 5.89727
2 7.86303 9.82878 5.89727
2 7.86303 -5.89727 9.82878
2 7.86303 -1.96576 9.82878
2 7.86303 1.96576 9.82878
2 7.86303 5.89727 9.82878
2 11.7945 -5.89727 -5.89727
2 11.7945 -1.96576 -5.89727
2 11.7945 1.96576 -5.89727
2 11.7945 5.89727 -5.89727
2 11.7945 -5.89727 -1.96576
2 11.7945 -1.96576 -1.96576
2 11.7945 1.96576 -1.96576
2 11.7945 5.89727 -1.96576
2 11.7945 -5.89727 1.96576
2 11.7945 -1.96576 1.96576
2 11.7945 1.96576 1.96576
2 11.7945 5.89727 1.96576
2 11.7945 -5.89727 5.89727
2 11.7945 -1.96576 5.89727
2 11.7945 1.96576 5.89727
2 11.7945 5.89727 5.89727
959
 Atoms. Timestep: 10
2 -3.9209 -7.73623 -11.5753
2 0.0357122 -7.62933 -11.5865
2 4.07785 -7.68554 -11.45
2 -7.63481 -4.09691 -11.4502
2 -3.78822 -3.78955 -11.6227
2 0.0212343 -3.966 -11.7415
2 3.83429 -4.00084 -11.636
2 7.74405 -3.6052 -11.4501
2 -7.60199 0.0974101 -11.5241
2 -3.95628 0.107149 -11.8644
2 0.0564138 0.0268346 -11.7022
2 3.98273 0.0377341 -11.8963
2 7.70917 0.0160729 -11.5521
2 -7.68643 3.86333 -11.4542
2 -3.9062 3.83856 -11.6199
2 -0.127241 3.84555 -11.8954
2 3.94787 3.88525 -11.8819
2 7.92791 3.67495 -11.4625
2 -3.96486 7.72754 -11.4289
2 0.061481 7.75397 -11.6828
2 3.86488 7.76173 -11.4534
2 -3.86391 -11.4476 -7.5926
2 0.0043645 -11.6329 -7.60103
2 3.99119 -11.5082 -7.60508
2 -7.70753 -7.89842 -7.74028
2 -4.09835 -7.94287 -7.75026
2 -0.0400546 -8.05793 -7.7969
2 3.91396 -7.76668 -7.89528
2 7.73735 -7.69333 -7.7107
2 -11.516 -3.94602 -7.62643
2 -7.91717 -3.9633 -8.12104
2 -3.88166 -3.90564 -7.92148
2 0.0718469 -3.87328 -7.70483
2 3.89582 -3.9614 -7.89752
2 7.91708 -4.02753 -7.96906
2 11.6056 -3.98495 -7.63762
2 -11.5382 0.1195 -7.54466
2 -7.90277 -0.146166 -7.94894
2 -3.96302 -0.102125 -7.72198
2 -0.0250717 -0.0827656 -7.90384
2 3.87432 -0.0502413 -7.82161
2 7.82362 -0.0585701 -7.90044
2 11.6825 -0.141642 -7.83165
2 -11.3131 3.99704 -7.82401
2 -7.95789 4.00479 -7.92403
2 -3.95607 3.87291 -7.85946
2 -0.0856357 3.84541 -7.88516
2 3.87131 3.98718 -7.73103
2 7.73463 3.80124 -7.74677
2 11.3138 3.9199 -7.75767
2 -7.70395 7.84034 -7.74413
2 -3.85607 7.90004 -7.94035
2 -0.0300645 7.95214 -7.76293
2 4.02847 7.912 -7.86551
2 7.60674 7.86493 -7.60633
2 -4.03134 11.4582 -7.75335
2 0.0582733 11.6827 -7.63845
2 4.0207 11.6846 -7.86238
2 -7.71013 -11.4198 -3.94992
2 -3.88185 -11.5832 -3.84568
2 -0.0208726 -11.8389 -4.01239
2 3.91028 -11.588 -3.73184
2 7.55022 -11.4844 -3.98058
2 -11.4236 -7.6213 -4.06729
2 -7.92482 -7.97507 -4.01137
2 -3.97319 -7.66133 -3.80942
2 -0.100907 -8.09631 -3.87482
2 3.94211 -7.84214 -4.09398
2 7.82314 -7.88068 -4.04194
2 11.4255 -7.74856 -3.96055
2 -11.6044 -3.85144 -3.96719
2 -7.88136 -3.82919 -3.94684
2 -3.86837 -4.00935 -3.9234
2 0.00655934 -3.97679 -3.83088
2 4.01712 -3.86344 -3.95591
2 8.07608 -3.8335 -3.96832
2 11.7523 -3.85594 -3.82968
2 -11.8295 -0.0190135 -3.97728
2 -7.88568 -0.0303399 -3.90031
2 -4.00472 0.047087 -3.9137
2 -0.0125781 -0.019384 -3.85178
2 3.88348 -0.135689 -4.04602
2 7.77029 -0.104984 -3.96942
2 11.8489 -0.208822 -3.91759
2 -11.6538 3.727 -3.86961
2 -7.88509 3.96975 -3.9241
2 -3.96137 3.82796 -3.87684
2 -0.292053 3.97957 -3.87956
2 4.04036 3.90107 -4.01376
2 7.8703 3.93893 -3.98315
2 11.715 3.93701 -4.01055
2 -11.445 7.73804 -3.84984
2 -7.87043 7.93792 -3.89594
2 -4.06783 7.83205 -4.00347
2 0.0556026 7.79554 -3.93777
2 3.85268 7.9535 -3.9612
2 7.79922 7.93584 -3.91464
2 11.4881 7.74172 -4.00929
2 -7.74418 11.3424 -4.12505
2 -3.85811 11.6384 -3.88151
2 -0.0153559 11.8392 -4.03736
2 4.03002 11.6951 -3.85729
2 7.706 11.5462 -3.99863
2 -7.57243 -11.5275 0.145179
2 -4.03674 -11.7571 -0.125924
2 -0.104734 -11.7383 0.113785
2 3.9786 -11.6146 0.126729
2 7.73812 -11.6608 0.0388329
2 -11.5546 -7.57071 -0.146729
2 -7.95401 -8.06304 -0.0485639
2 -3.8821 -7.83461 -0.0388056
2 -0.0159627 -7.66765 0.0559464
2 3.9535 -7.91619 -0.00156803
2 7.76701 -7.91636 -0.0570363
2 11.3912 -7.76642 0.126543
2 -11.8579 -4.01548 -0.213582
2 -7.8327 -3.84043 -0.0864329
2 -3.9323 -4.06348 -0.154017
2 0.000826249 -3.85363 -0.0645728
2 3.98231 -3.82582 0.127856
2 7.95877 -3.7924 0.0376313
2 11.8776 -4.02126 -0.120935
2 -11.8047 -0.0448717 -0.0235371
2 -7.72337 0.0504681 -0.0335204
2 -3.96084 0.0968028 0.0160523
2 0.046963 -0.0519127 -0.163761
2 3.98575 -0.0345417 -0.00662899
2 7.93422 0.0596114 -0.0364095
2 11.9098 0.0286655 0.0475483
2 -11.7027 3.87392 -0.101566
2 -7.84464 3.95335 0.104052
2 -3.82731 3.92674 0.140484
2 -0.0392446 3.82783 0.0423329
2 3.8859 3.99363 -0.123749
2 7.96324 3.9829 -0.0704914
2 11.8671 3.87163 -0.0361349
2 -11.705 7.43272 -0.00926583
2 -7.71272 7.85505 0.128023
2 -3.81928 7.91267 -0.0760221
2 -0.0346386 7.83486 -0.146037
2 4.05798 7.96881 0.0514076
2 7.95731 7.99448 0.0340201
2 11.6014 7.44869 0.0728944
2 -7.54773 11.636 0.137287
2 -3.82043 11.807 0.0421319
2 0.0774355 11.7986 0.0607518
2 3.8396 11.8638 0.0828641
2 7.65563 11.5528 -0.0387674
2 -7.71146 -11.7219 3.92248
2 -3.94734 -11.5221 3.8134
2 -0.090988 -11.7502 4.10781
2 3.95571 -11.7274 3.86176
2 7.77342 -11.4716 3.95836
2 -11.6318 -7.84157 3.75168
2 -7.91341 -8.01715 3.91508
2 -3.89877 -7.86873 4.0196
2 -0.183928 -7.92617 3.91626
2 4.13744 -7.94979 4.05451
2 7.81357 -7.80438 3.94209
2 11.535 -7.84842 3.98425
2 -11.6828 -3.85438 3.84258
2 -7.81497 -3.84142 3.9686
2 -3.88947 -4.07427 4.06615
2 0.0918727 -3.952 3.64021
2 3.92458 -3.82045 3.89216
2 7.78176 -3.9829 3.89369
2 11.7493 -3.88079 4.08502
2 -11.9164 0.145733 3.89592
2 -7.76168 -0.0109527 3.96065
2 -3.85064 0.0538875 3.80496
2 -0.0127218 -0.000789442 3.93993
2 4.01752 -0.00248409 3.82364
2 7.89534 -0.0314136 4.04167
2 11.8323 0.0667821 3.89734
2 -11.6551 3.79886 3.97353
2 -7.9709 3.83282 4.06049
2 -3.87329 4.1386 3.9382
2 -0.0351515 4.00353 4.1061
2 4.00159 4.12173 3.85812
2 7.7032 3.92808 3.79673
2 11.6077 3.84145 3.93045
2 -11.4341 7.45108 4.01232
2 -7.84869 7.92803 3.79239
2 -3.953 7.92494 3.99737
2 -0.0721888 7.81614 3.94954
2 3.92679 8.06979 3.85777
2 7.98193 7.89327 3.87024
2 11.5287 7.71395 4.02696
2 -7.74083 11.3867 4.02256
2 -3.88496 11.712 3.84727
2 0.0337833 11.8042 3.8352
2 3.83824 11.6364 3.92752