LAMMPS DATA FOR MEAM SIMULATION

   1289   atoms
      2   atom types

  -25.70   25.70   xlo xhi
  -25.70   25.70   ylo yhi
  -25.70   25.70   zlo zhi

 Atoms

     1   2    -3.92444    -3.92444   -15.69777
     2   2     0.00000    -3.92444   -15.69777
     3   2     3.92444    -3.92444   -15.69777
     4   2    -3.92444     0.00000   -15.69777
     5   2     0.00000     0.00000   -15.69777
     6   2     3.92444     0.00000   -15.69777
     7   2    -3.92444     3.92444   -15.69777
     8   2     0.00000     3.92444   -15.69777
     9   2     3.92444     3.92444   -15.69777
    10   2     0.00000   -11.77333   -11.77333
    11   2    -7.84889    -7.84889   -11.77333
    12   1    -3.92444    -7.84889   -11.77333
    13   1     0.00000    -7.84889   -11.77333
    14   1     3.92444    -7.84889   -11.77333
    15   2     7.84889    -7.84889   -11.77333
    16   1    -7.84889    -3.92444   -11.77333
    17   1    -3.92444    -3.92444   -11.77333
    18   1     0.00000    -3.92444   -11.77333
    19   1     3.92444    -3.92444   -11.77333
    20   1     7.84889    -3.92444   -11.77333
    21   2   -11.77333     0.00000   -11.77333
    22   1    -7.84889     0.00000   -11.77333
    23   1    -3.92444     0.00000   -11.77333
    24   1     0.00000     0.00000   -11.77333
    25   1     3.92444     0.00000   -11.77333
    26   1     7.84889     0.00000   -11.77333
    27   2    11.77333     0.00000   -11.77333
    28   1    -7.84889     3.92444   -11.77333
    29   1    -3.92444     3.92444   -11.77333
    30   1     0.00000     3.92444   -11.77333
    31   1     3.92444     3.92444   -11.77333
    32   1     7.84889     3.92444   -11.77333
    33   2    -7.84889     7.84889   -11.77333
    34   1    -3.92444     7.84889   -11.77333
    35   1     0.00000     7.84889   -11.77333
    36   1     3.92444     7.84889   -11.77333
    37   2     7.84889     7.84889   -11.77333
    38   2     0.00000    11.77333   -11.77333
    39   2    -7.84889   -11.77333    -7.84889
    40   1    -3.92444   -11.77333    -7.84889
    41   1     0.00000   -11.77333    -7.84889
    42   1     3.92444   -11.77333    -7.84889
    43   2     7.84889   -11.77333    -7.84889
    44   2   -11.77333    -7.84889    -7.84889
    45   1    -7.84889    -7.84889    -7.84889
    46   1    -3.92444    -7.84889    -7.84889
    47   1     0.00000    -7.84889    -7.84889
    48   1     3.92444    -7.84889    -7.84889
    49   1     7.84889    -7.84889    -7.84889
    50   2    11.77333    -7.84889    -7.84889
    51   1   -11.77333    -3.92444    -7.84889
    52   1    -7.84889    -3.92444    -7.84889
    53   1    -3.92444    -3.92444    -7.84889
    54   1     0.00000    -3.92444    -7.84889
    55   1     3.92444    -3.92444    -7.84889
    56   1     7.84889    -3.92444    -7.84889
    57   1    11.77333    -3.92444    -7.84889
    58   1   -11.77333     0.00000    -7.84889
    59   1    -7.84889     0.00000    -7.84889
    60   1    -3.92444     0.00000    -7.84889
    61   1     0.00000     0.00000    -7.84889
    62   1     3.92444     0.00000    -7.84889
    63   1     7.84889     0.00000    -7.84889
    64   1    11.77333     0.00000    -7.84889
    65   1   -11.77333     3.92444    -7.84889
    66   1    -7.84889     3.92444    -7.84889
    67   1    -3.92444     3.92444    -7.84889
    68   1     0.00000     3.92444    -7.84889
    69   1     3.92444     3.92444    -7.84889
    70   1     7.84889     3.92444    -7.84889
    71   1    11.77333     3.92444    -7.84889
    72   2   -11.77333     7.84889    -7.84889
    73   1    -7.84889     7.84889    -7.84889
    74   1    -3.92444     7.84889    -7.84889
    75   1     0.00000     7.84889    -7.84889
    76   1     3.92444     7.84889    -7.84889
    77   1     7.84889     7.84889    -7.84889
    78   2    11.77333     7.84889    -7.84889
    79   2    -7.84889    11.77333    -7.84889
    80   1    -3.92444    11.77333    -7.84889
    81   1     0.00000    11.77333    -7.84889
    82   1     3.92444    11.77333    -7.84889
    83   2     7.84889    11.77333    -7.84889
    84   2    -3.92444   -15.69777    -3.92444
    85   2     0.00000   -15.69777    -3.92444
    86   2     3.92444   -15.69777    -3.92444
    87   1    -7.84889   -11.77333    -3.92444
    88   1    -3.92444   -11.77333    -3.92444
    89   1     0.00000   -11.77333    -3.92444
    90   1     3.92444   -11.77333    -3.92444
    91   1     7.84889   -11.77333    -3.92444
    92   1   -11.77333    -7.84889    -3.92444
    93   1    -7.84889    -7.84889    -3.92444
    94   1    -3.92444    -7.84889    -3.92444
    95   1     0.00000    -7.84889    -3.92444
    96   1     3.92444    -7.84889    -3.92444
    97   1     7.84889    -7.84889    -3.92444
    98   1    11.77333    -7.84889    -3.92444
    99   2   -15.69777    -3.92444    -3.92444
   100   1   -11.77333    -3.92444    -3.92444
   101   1    -7.84889    -3.92444    -3.92444
   102   1    -3.92444    -3.92444    -3.92444
   103   1     0.00000    -3.92444    -3.92444
   104   1     3.92444    -3.92444    -3.92444
   105   1     7.84889    -3.92444    -3.92444
   106   1    11.77333    -3.92444    -3.92444
   107   2    15.69777    -3.92444    -3.92444
   108   2   -15.69777     0.00000    -3.92444
   109   1   -11.77333     0.00000    -3.92444
   110   1    -7.84889     0.00000    -3.92444
   111   1    -3.92444     0.00000    -3.92444
   112   1     0.00000     0.00000    -3.92444
   113   1     3.92444     0.00000    -3.92444
   114   1     7.84889     0.00000    -3.92444
   115   1    11.77333     0.00000    -3.92444
   116   2    15.69777     0.00000    -3.92444
   117   2   -15.69777     3.92444    -3.92444
   118   1   -11.77333     3.92444    -3.92444
   119   1    -7.84889     3.92444    -3.92444
   120   1    -3.92444     3.92444    -3.92444
   121   1     0.00000     3.92444    -3.92444
   122   1     3.92444     3.92444    -3.92444
   123   1     7.84889     3.92444    -3.92444
   124   1    11.77333     3.92444    -3.92444
   125   2    15.69777     3.92444    -3.92444
   126   1   -11.77333     7.84889    -3.92444
   127   1    -7.84889     7.84889    -3.92444
   128   1    -3.92444     7.84889    -3.92444
   129   1     0.00000     7.84889    -3.92444
   130   1     3.92444     7.84889    -3.92444
   131   1     7.84889     7.84889    -3.92444
   132   1    11.77333     7.84889    -3.92444
   133   1    -7.84889    11.77333    -3.92444
   134   1    -3.92444    11.77333    -3.92444
   135   1     0.00000    11.77333    -3.92444
   136   1     3.92444    11.77333    -3.92444
   137   1     7.84889    11.77333    -3.92444
   138   2    -3.92444    15.69777    -3.92444
   139   2     0.00000    15.69777    -3.92444
   140   2     3.92444    15.69777    -3.92444
   141   2    -3.92444   -15.69777     0.00000
   142   2     0.00000   -15.69777     0.00000
   143   2     3.92444   -15.69777     0.00000
   144   2   -11.77333   -11.77333     0.00000
   145   1    -7.84889   -11.77333     0.00000
   146   1    -3.92444   -11.77333     0.00000
   147   1     0.00000   -11.77333     0.00000
   148   1     3.92444   -11.77333     0.00000
   149   1     7.84889   -11.77333     0.00000
   150   2    11.77333   -11.77333     0.00000
   151   1   -11.77333    -7.84889     0.00000
   152   1    -7.84889    -7.84889     0.00000
   153   1    -3.92444    -7.84889     0.00000
   154   1     0.00000    -7.84889     0.00000
   155   1     3.92444    -7.84889     0.00000
   156   1     7.84889    -7.84889     0.00000
   157   1    11.77333    -7.84889     0.00000
   158   2   -15.69777    -3.92444     0.00000
   159   1   -11.77333    -3.92444     0.00000
   160   1    -7.84889    -3.92444     0.00000
   161   1    -3.92444    -3.92444     0.00000
   162   1     0.00000    -3.92444     0.00000
   163   1     3.92444    -3.92444     0.00000
   164   1     7.84889    -3.92444     0.00000
   165   1    11.77333    -3.92444     0.00000
   166   2    15.69777    -3.92444     0.00000
   167   2   -15.69777     0.00000     0.00000
   168   1   -11.77333     0.00000     0.00000
   169   1    -7.84889     0.00000     0.00000
   170   1    -3.92444     0.00000     0.00000
   171   1     0.00000     0.00000     0.00000
   172   1     3.92444     0.00000     0.00000
   173   1     7.84889     0.00000     0.00000
   174   1    11.77333     0.00000     0.00000
   175   2    15.69777     0.00000     0.00000
   176   2   -15.69777     3.92444     0.00000
   177   1   -11.77333     3.92444     0.00000
   178   1    -7.84889     3.92444     0.00000
   179   1    -3.92444     3.92444     0.00000
   180   1     0.00000     3.92444     0.00000
   181   1     3.92444     3.92444     0.00000
   182   1     7.84889     3.92444     0.00000
   183   1    11.77333     3.92444     0.00000
   184   2    15.69777     3.92444     0.00000
   185   1   -11.77333     7.84889     0.00000
   186   1    -7.84889     7.84889     0.00000
   187   1    -3.92444     7.84889     0.00000
   188   1     0.00000     7.84889     0.00000
   189   1     3.92444     7.84889     0.00000
   190   1     7.84889     7.84889     0.00000
   191   1    11.77333     7.84889     0.00000
   192   2   -11.77333    11.77333     0.00000
   193   1    -7.84889    11.77333     0.00000
   194   1    -3.92444    11.77333     0.00000
   195   1     0.00000    11.77333     0.00000
   196   1     3.92444    11.77333     0.00000
   197   1     7.84889    11.77333     0.00000
   198   2    11.77333    11.77333     0.00000
   199   2    -3.92444    15.69777     0.00000
   200   2     0.00000    15.69777     0.00000
   201   2     3.92444    15.69777     0.00000
   202   2    -3.92444   -15.69777     3.92444
   203   2     0.00000   -15.69777     3.92444
   204   2     3.92444   -15.69777     3.92444
   205   1    -7.84889   -11.77333     3.92444
   206   1    -3.92444   -11.77333     3.92444
   207   1     0.00000   -11.77333     3.92444
   208   1     3.92444   -11.77333     3.92444
   209   1     7.84889   -11.77333     3.92444
   210   1   -11.77333    -7.84889     3.92444
   211   1    -7.84889    -7.84889     3.92444
   212   1    -3.92444    -7.84889     3.92444
   213   1     0.00000    -7.84889     3.92444
   214   1     3.92444    -7.84889     3.92444
   215   1     7.84889    -7.84889     3.92444
   216   1    11.77333    -7.84889     3.92444
   217   2   -15.69777    -3.92444     3.92444
   218   1   -11.77333    -3.92444     3.92444
   219   1    -7.84889    -3.92444     3.92444
   220   1    -3.92444    -3.92444     3.92444
   221   1     0.00000    -3.92444     3.92444
   222   1     3.92444    -3.92444     3.92444
   223   1     7.84889    -3.92444     3.92444
   224   1    11.77333    -3.92444     3.92444
   225   2    15.69777    -3.92444     3.92444
   226   2   -15.69777     0.00000     3.92444
   227   1   -11.77333     0.00000     3.92444
   228   1    -7.84889     0.00000     3.92444
   229   1    -3.92444     0.00000     3.92444
   230   1     0.00000     0.00000     3.92444
   231   1     3.92444     0.00000     3.92444
   232   1     7.84889     0.00000     3.92444
   233   1    11.77333     0.00000     3.92444
   234   2    15.69777     0.00000     3.92444
   235   2   -15.69777     3.92444     3.92444
   236   1   -11.77333     3.92444     3.92444
   237   1    -7.84889     3.92444     3.92444
   238   1    -3.92444     3.92444     3.92444
   239   1     0.00000     3.92444     3.92444
   240   1     3.92444     3.92444     3.92444
   241   1     7.84889     3.92444     3.92444
   242   1    11.77333     3.92444     3.92444
   243   2    15.69777     3.92444     3.92444
   244   1   -11.77333     7.84889     3.92444
   245   1    -7.84889     7.84889     3.92444
   246   1    -3.92444     7.84889     3.92444
   247   1     0.00000     7.84889     3.92444
   248   1     3.92444     7.84889     3.92444
   249   1     7.84889     7.84889     3.92444
   250   1    11.77333     7.84889     3.92444
   251   1    -7.84889    11.77333     3.92444
   252   1    -3.92444    11.77333     3.92444
   253   1     0.00000    11.77333     3.92444
   254   1     3.92444    11.77333     3.92444
   255   1     7.84889    11.77333     3.92444
   256   2    -3.92444    15.69777     3.92444
   257   2     0.00000    15.69777     3.92444
   258   2     3.92444    15.69777     3.92444
   259   2    -7.84889   -11.77333     7.84889
   260   1    -3.92444   -11.77333     7.84889
   261   1     0.00000   -11.77333     7.84889
   262   1     3.92444   -11.77333     7.84889
   263   2     7.84889   -11.77333     7.84889
   264   2   -11.77333    -7.84889     7.84889
   265   1    -7.84889    -7.84889     7.84889
   266   1    -3.92444    -7.84889     7.84889
   267   1     0.00000    -7.84889     7.84889
   268   1     3.92444    -7.84889     7.84889
   269   1     7.84889    -7.84889     7.84889
   270   2    11.77333    -7.84889     7.84889
   271   1   -11.77333    -3.92444     7.84889
   272   1    -7.84889    -3.92444     7.84889
   273   1    -3.92444    -3.92444     7.84889
   274   1     0.00000    -3.92444     7.84889
   275   1     3.92444    -3.92444     7.84889
   276   1     7.84889    -3.92444     7.84889
   277   1    11.77333    -3.92444     7.84889
   278   1   -11.77333     0.00000     7.84889
   279   1    -7.84889     0.00000     7.84889
   280   1    -3.92444     0.00000     7.84889
   281   1     0.00000     0.00000     7.84889
   282   1     3.92444     0.00000     7.84889
   283   1     7.84889     0.00000     7.84889
   284   1    11.77333     0.00000     7.84889
   285   1   -11.77333     3.92444     7.84889
   286   1    -7.84889     3.92444     7.84889
   287   1    -3.92444     3.92444     7.84889
   288   1     0.00000     3.92444     7.84889
   289   1     3.92444     3.92444     7.84889
   290   1     7.84889     3.92444     7.84889
   291   1    11.77333     3.92444     7.84889
   292   2   -11.77333     7.84889     7.84889
   293   1    -7.84889     7.84889     7.84889
   294   1    -3.92444     7.84889     7.84889
   295   1     0.00000     7.84889     7.84889
   296   1     3.92444     7.84889     7.84889
   297   1     7.84889     7.84889     7.84889
   298   2    11.77333     7.84889     7.84889
   299   2    -7.84889    11.77333     7.84889
   300   1    -3.92444    11.77333     7.84889
   301   1     0.00000    11.77333     7.84889
   302   1     3.92444    11.77333     7.84889
   303   2     7.84889    11.77333     7.84889
   304   2     0.00000   -11.77333    11.77333
   305   2    -7.84889    -7.84889    11.77333
   306   1    -3.92444    -7.84889    11.77333
   307   1     0.00000    -7.84889    11.77333
   308   1     3.92444    -7.84889    11.77333
   309   2     7.84889    -7.84889    11.77333
   310   1    -7.84889    -3.92444    11.77333
   311   1    -3.92444    -3.92444    11.77333
   312   1     0.00000    -3.92444    11.77333
   313   1     3.92444    -3.92444    11.77333
   314   1     7.84889    -3.92444    11.77333
   315   2   -11.77333     0.00000    11.77333
   316   1    -7.84889     0.00000    11.77333
   317   1    -3.92444     0.00000    11.77333
   318   1     0.00000     0.00000    11.77333
   319   1     3.92444     0.00000    11.77333
   320   1     7.84889     0.00000    11.77333
   321   2    11.77333     0.00000    11.77333
   322   1    -7.84889     3.92444    11.77333
   323   1    -3.92444     3.92444    11.77333
   324   1     0.00000     3.92444    11.77333
   325   1     3.92444     3.92444    11.77333
   326   1     7.84889     3.92444    11.77333
   327   2    -7.84889     7.84889    11.77333
   328   1    -3.92444     7.84889    11.77333
   329   1     0.00000     7.84889    11.77333
   330   1     3.92444     7.84889    11.77333
   331   2     7.84889     7.84889    11.77333
   332   2     0.00000    11.77333    11.77333
   333   2    -3.92444    -3.92444    15.69777
   334   2     0.00000    -3.92444    15.69777
   335   2     3.92444    -3.92444    15.69777
   336   2    -3.92444     0.00000    15.69777
   337   2     0.00000     0.00000    15.69777
   338   2     3.92444     0.00000    15.69777
   339   2    -3.92444     3.92444    15.69777
   340   2     0.00000     3.92444    15.69777
   341   2     3.92444     3.92444    15.69777
   342   2    -1.96222    -1.96222   -15.69777
   343   2     1.96222    -1.96222   -15.69777
   344   2    -1.96222     1.96222   -15.69777
   345   2     1.96222     1.96222   -15.69777
   346   2    -5.88666    -9.81111   -11.77333
   347   1    -1.96222    -9.81111   -11.77333
   348   1     1.96222    -9.81111   -11.77333
   349   2     5.88666    -9.81111   -11.77333
   350   2    -9.81111    -5.88666   -11.77333
   351   1    -5.88666    -5.88666   -11.77333
   352   1    -1.96222    -5.88666   -11.77333
   353   1     1.96222    -5.88666   -11.77333
   354   1     5.88666    -5.88666   -11.77333
   355   2     9.81111    -5.88666   -11.77333
   356   1    -9.81111    -1.96222   -11.77333
   357   1    -5.88666    -1.96222   -11.77333
   358   1    -1.96222    -1.96222   -11.77333
   359   1     1.96222    -1.96222   -11.77333
   360   1     5.88666    -1.96222   -11.77333
   361   1     9.81111    -1.96222   -11.77333
   362   1    -9.81111     1.96222   -11.77333
   363   1    -5.88666     1.96222   -11.77333
   364   1    -1.96222     1.96222   -11.77333
   365   1     1.96222     1.96222   -11.77333
   366   1     5.88666     1.96222   -11.77333
   367   1     9.81111     1.96222   -11.77333
   368   2    -9.81111     5.88666   -11.77333
   369   1    -5.88666     5.88666   -11.77333
   370   1    -1.96222     5.88666   -11.77333
   371   1     1.96222     5.88666   -11.77333
   372   1     5.88666     5.88666   -11.77333
   373   2     9.81111     5.88666   -11.77333
   374   2    -5.88666     9.81111   -11.77333
   375   1    -1.96222     9.81111   -11.77333
   376   1     1.96222     9.81111   -11.77333
   377   2     5.88666     9.81111   -11.77333
   378   2    -1.96222   -13.73555    -7.84889
   379   2     1.96222   -13.73555    -7.84889
   380   2    -9.81111    -9.81111    -7.84889
   381   1    -5.88666    -9.81111    -7.84889
   382   1    -1.96222    -9.81111    -7.84889
   383   1     1.96222    -9.81111    -7.84889
   384   1     5.88666    -9.81111    -7.84889
   385   2     9.81111    -9.81111    -7.84889
   386   1    -9.81111    -5.88666    -7.84889
   387   1    -5.88666    -5.88666    -7.84889
   388   1    -1.96222    -5.88666    -7.84889
   389   1     1.96222    -5.88666    -7.84889
   390   1     5.88666    -5.88666    -7.84889
   391   1     9.81111    -5.88666    -7.84889
   392   2   -13.73555    -1.96222    -7.84889
   393   1    -9.81111    -1.96222    -7.84889
   394   1    -5.88666    -1.96222    -7.84889
   395   1    -1.96222    -1.96222    -7.84889
   396   1     1.96222    -1.96222    -7.84889
   397   1     5.88666    -1.96222    -7.84889
   398   1     9.81111    -1.96222    -7.84889
   399   2    13.73555    -1.96222    -7.84889
   400   2   -13.73555     1.96222    -7.84889
   401   1    -9.81111     1.96222    -7.84889
   402   1    -5.88666     1.96222    -7.84889
   403   1    -1.96222     1.96222    -7.84889
   404   1     1.96222     1.96222    -7.84889
   405   1     5.88666     1.96222    -7.84889
   406   1     9.81111     1.96222    -7.84889
   407   2    13.73555     1.96222    -7.84889
   408   1    -9.81111     5.88666    -7.84889
   409   1    -5.88666     5.88666    -7.84889
   410   1    -1.96222     5.88666    -7.84889
   411   1     1.96222     5.88666    -7.84889
   412   1     5.88666     5.88666    -7.84889
   413   1     9.81111     5.88666    -7.84889
   414   2    -9.81111     9.81111    -7.84889
   415   1    -5.88666     9.81111    -7.84889
   416   1    -1.96222     9.81111    -7.84889
   417   1     1.96222     9.81111    -7.84889
   418   1     5.88666     9.81111    -7.84889
   419   2     9.81111     9.81111    -7.84889
   420   2    -1.96222    13.73555    -7.84889
   421   2     1.96222    13.73555    -7.84889
   422   1    -5.88666   -13.73555    -3.92444
   423   1    -1.96222   -13.73555    -3.92444
   424   1     1.96222   -13.73555    -3.92444
   425   1     5.88666   -13.73555    -3.92444
   426   1    -9.81111    -9.81111    -3.92444
   427   1    -5.88666    -9.81111    -3.92444
   428   1    -1.96222    -9.81111    -3.92444
   429   1     1.96222    -9.81111    -3.92444
   430   1     5.88666    -9.81111    -3.92444
   431   1     9.81111    -9.81111    -3.92444
   432   1   -13.73555    -5.88666    -3.92444
   433   1    -9.81111    -5.88666    -3.92444
   434   1    -5.88666    -5.88666    -3.92444
   435   1    -1.96222    -5.88666    -3.92444
   436   1     1.96222    -5.88666    -3.92444
   437   1     5.88666    -5.88666    -3.92444
   438   1     9.81111    -5.88666    -3.92444
   439   1    13.73555    -5.88666    -3.92444
   440   1   -13.73555    -1.96222    -3.92444
   441   1    -9.81111    -1.96222    -3.92444
   442   1    -5.88666    -1.96222    -3.92444
   443   1    -1.96222    -1.96222    -3.92444
   444   1     1.96222    -1.96222    -3.92444
   445   1     5.88666    -1.96222    -3.92444
   446   1     9.81111    -1.96222    -3.92444
   447   1    13.73555    -1.96222    -3.92444
   448   1   -13.73555     1.96222    -3.92444
   449   1    -9.81111     1.96222    -3.92444
   450   1    -5.88666     1.96222    -3.92444
   451   1    -1.96222     1.96222    -3.92444
   452   1     1.96222     1.96222    -3.92444
   453   1     5.88666     1.96222    -3.92444
   454   1     9.81111     1.96222    -3.92444
   455   1    13.73555     1.96222    -3.92444
   456   1   -13.73555     5.88666    -3.92444
   457   1    -9.81111     5.88666    -3.92444
   458   1    -5.88666     5.88666    -3.92444
   459   1    -1.96222     5.88666    -3.92444
   460   1     1.96222     5.88666    -3.92444
   461   1     5.88666     5.88666    -3.92444
   462   1     9.81111     5.88666    -3.92444
   463   1    13.73555     5.88666    -3.92444
   464   1    -9.81111     9.81111    -3.92444
   465   1    -5.88666     9.81111    -3.92444
   466   1    -1.96222     9.81111    -3.92444
   467   1     1.96222     9.81111    -3.92444
   468   1     5.88666     9.81111    -3.92444
   469   1     9.81111     9.81111    -3.92444
   470   1    -5.88666    13.73555    -3.92444
   471   1    -1.96222    13.73555    -3.92444
   472   1     1.96222    13.73555    -3.92444
   473   1     5.88666    13.73555    -3.92444
   474   1    -5.88666   -13.73555     0.00000
   475   1    -1.96222   -13.73555     0.00000
   476   1     1.96222   -13.73555     0.00000
   477   1     5.88666   -13.73555     0.00000
   478   1    -9.81111    -9.81111     0.00000
   479   1    -5.88666    -9.81111     0.00000
   480   1    -1.96222    -9.81111     0.00000
   481   1     1.96222    -9.81111     0.00000
   482   1     5.88666    -9.81111     0.00000
   483   1     9.81111    -9.81111     0.00000
   484   1   -13.73555    -5.88666     0.00000
   485   1    -9.81111    -5.88666     0.00000
   486   1    -5.88666    -5.88666     0.00000
   487   1    -1.96222    -5.88666     0.00000
   488   1     1.96222    -5.88666     0.00000
   489   1     5.88666    -5.88666     0.00000
   490   1     9.81111    -5.88666     0.00000
   491   1    13.73555    -5.88666     0.00000
   492   1   -13.73555    -1.96222     0.00000
   493   1    -9.81111    -1.96222     0.00000
   494   1    -5.88666    -1.96222     0.00000
   495   1    -1.96222    -1.96222     0.00000
   496   1     1.96222    -1.96222     0.00000
   497   1     5.88666    -1.96222     0.00000
   498   1     9.81111    -1.96222     0.00000
   499   1    13.73555    -1.96222     0.00000
   500   1   -13.73555     1.96222     0.00000
   501   1    -9.81111     1.96222     0.00000
   502   1    -5.88666     1.96222     0.00000
   503   1    -1.96222     1.96222     0.00000
   504   1     1.96222     1.96222     0.00000
   505   1     5.88666     1.96222     0.00000
   506   1     9.81111     1.96222     0.00000
   507   1    13.73555     1.96222     0.00000
   508   1   -13.73555     5.88666     0.00000
   509   1    -9.81111     5.88666     0.00000
   510   1    -5.88666     5.88666     0.00000
   511   1    -1.96222     5.88666     0.00000
   512   1     1.96222     5.88666     0.00000
   513   1     5.88666     5.88666     0.00000
   514   1     9.81111     5.88666     0.00000
   515   1    13.73555     5.88666     0.00000
   516   1    -9.81111     9.81111     0.00000
   517   1    -5.88666     9.81111     0.00000
   518   1    -1.96222     9.81111     0.00000
   519   1     1.96222     9.81111     0.00000
   520   1     5.88666     9.81111     0.00000
   521   1     9.81111     9.81111     0.00000
   522   1    -5.88666    13.73555     0.00000
   523   1    -1.96222    13.73555     0.00000
   524   1     1.96222    13.73555     0.00000
   525   1     5.88666    13.73555     0.00000
   526   1    -5.88666   -13.73555     3.92444
   527   1    -1.96222   -13.73555     3.92444
   528   1     1.96222   -13.73555     3.92444
   529   1     5.88666   -13.73555     3.92444
   530   1    -9.81111    -9.81111     3.92444
   531   1    -5.88666    -9.81111     3.92444
   532   1    -1.96222    -9.81111     3.92444
   533   1     1.96222    -9.81111     3.92444
   534   1     5.88666    -9.81111     3.92444
   535   1     9.81111    -9.81111     3.92444
   536   1   -13.73555    -5.88666     3.92444
   537   1    -9.81111    -5.88666     3.92444
   538   1    -5.88666    -5.88666     3.92444
   539   1    -1.96222    -5.88666     3.92444
   540   1     1.96222    -5.88666     3.92444
   541   1     5.88666    -5.88666     3.92444
   542   1     9.81111    -5.88666     3.92444
   543   1    13.73555    -5.88666     3.92444
   544   1   -13.73555    -1.96222     3.92444
   545   1    -9.81111    -1.96222     3.92444
   546   1    -5.88666    -1.96222     3.92444
   547   1    -1.96222    -1.96222     3.92444
   548   1     1.96222    -1.96222     3.92444
   549   1     5.88666    -1.96222     3.92444
   550   1     9.81111    -1.96222     3.92444
   551   1    13.73555    -1.96222     3.92444
   552   1   -13.73555     1.96222     3.92444
   553   1    -9.81111     1.96222     3.92444
   554   1    -5.88666     1.96222     3.92444
   555   1    -1.96222     1.96222     3.92444
   556   1     1.96222     1.96222     3.92444
   557   1     5.88666     1.96222     3.92444
   558   1     9.81111     1.96222     3.92444
   559   1    13.73555     1.96222     3.92444
   560   1   -13.73555     5.88666     3.92444
   561   1    -9.81111     5.88666     3.92444
   562   1    -5.88666     5.88666     3.92444
   563   1    -1.96222     5.88666     3.92444
   564   1     1.96222     5.88666     3.92444
   565   1     5.88666     5.88666     3.92444
   566   1     9.81111     5.88666     3.92444
   567   1    13.73555     5.88666     3.92444
   568   1    -9.81111     9.81111     3.92444
   569   1    -5.88666     9.81111     3.92444
   570   1    -1.96222     9.81111     3.92444
   571   1     1.96222     9.81111     3.92444
   572   1     5.88666     9.81111     3.92444
   573   1     9.81111     9.81111     3.92444
   574   1    -5.88666    13.73555     3.92444
   575   1    -1.96222    13.73555     3.92444
   576   1     1.96222    13.73555     3.92444
   577   1     5.88666    13.73555     3.92444
   578   2    -1.96222   -13.73555     7.84889
   579   2     1.96222   -13.73555     7.84889
   580   2    -9.81111    -9.81111     7.84889
   581   1    -5.88666    -9.81111     7.84889
   582   1    -1.96222    -9.81111     7.84889
   583   1     1.96222    -9.81111     7.84889
   584   1     5.88666    -9.81111     7.84889
   585   2     9.81111    -9.81111     7.84889
   586   1    -9.81111    -5.88666     7.84889
   587   1    -5.88666    -5.88666     7.84889
   588   1    -1.96222    -5.88666     7.84889
   589   1     1.96222    -5.88666     7.84889
   590   1     5.88666    -5.88666     7.84889
   591   1     9.81111    -5.88666     7.84889
   592   2   -13.73555    -1.96222     7.84889
   593   1    -9.81111    -1.96222     7.84889
   594   1    -5.88666    -1.96222     7.84889
   595   1    -1.96222    -1.96222     7.84889
   596   1     1.96222    -1.96222     7.84889
   597   1     5.88666    -1.96222     7.84889
   598   1     9.81111    -1.96222     7.84889
   599   2    13.73555    -1.96222     7.84889
   600   2   -13.73555     1.96222     7.84889
   601   1    -9.81111     1.96222     7.84889
   602   1    -5.88666     1.96222     7.84889
   603   1    -1.96222     1.96222     7.84889
   604   1     1.96222     1.96222     7.84889
   605   1     5.88666     1.96222     7.84889
   606   1     9.81111     1.96222     7.84889
   607   2    13.73555     1.96222     7.84889
   608   1    -9.81111     5.88666     7.84889
   609   1    -5.88666     5.88666     7.84889
   610   1    -1.96222     5.88666     7.84889
   611   1     1.96222     5.88666     7.84889
   612   1     5.88666     5.88666     7.84889
   613   1     9.81111     5.88666     7.84889
   614   2    -9.81111     9.81111     7.84889
   615   1    -5.88666     9.81111     7.84889
   616   1    -1.96222     9.81111     7.84889
   617   1     1.96222     9.81111     7.84889
   618   1     5.88666     9.81111     7.84889
   619   2     9.81111     9.81111     7.84889
   620   2    -1.96222    13.73555     7.84889
   621   2     1.96222    13.73555     7.84889
   622   2    -5.88666    -9.81111    11.77333
   623   1    -1.96222    -9.81111    11.77333
   624   1     1.96222    -9.81111    11.77333
   625   2     5.88666    -9.81111    11.77333
   626   2    -9.81111    -5.88666    11.77333
   627   1    -5.88666    -5.88666    11.77333
   628   1    -1.96222    -5.88666    11.77333
   629   1     1.96222    -5.88666    11.77333
   630   1     5.88666    -5.88666    11.77333
   631   2     9.81111    -5.88666    11.77333
   632   1    -9.81111    -1.96222    11.77333
   633   1    -5.88666    -1.96222    11.77333
   634   1    -1.96222    -1.96222    11.77333