887
 Atoms. Timestep: 500
2 -2.86789 -7.74174 -10.8418
2 -0.145547 -8.01937 -11.1545
2 2.59561 -8.14454 -11.6387
2 -5.97921 -3.07119 -11.2358
2 -3.09842 -3.53943 -10.9195
2 0.188378 -3.10522 -10.8743
2 2.90798 -3.34017 -11.2857
2 5.13059 -3.7222 -9.54275
2 -6.76447 -0.399935 -11.6524
2 -2.11285 0.786247 -11.6137
2 3.02376 0.296933 -10.9448
2 6.60837 0.423149 -11.3308
2 -5.1824 3.20881 -9.06908
2 -3.13923 3.51708 -10.9903
2 -0.527726 3.19152 -11.1263
2 2.33473 3.05882 -11.0758
2 7.44871 3.20801 -11.6297
2 -3.52589 7.95614 -10.5803
2 -1.16787 8.48674 -11.3649
2 2.65266 6.24445 -8.75879
2 -3.45777 -10.64 -5.71546
2 -0.171524 -11.6664 -6.98079
2 2.48418 -11.7755 -7.68873
2 -7.00477 -6.73891 -7.30347
2 6.01565 -7.53252 -7.44007
2 -10.8299 -3.01525 -8.4023
2 8.98922 -3.63313 -5.88813
2 -10.968 -0.331653 -8.22526
2 10.613 0.314558 -7.61826
2 -8.95553 3.10248 -5.54173
2 11.2234 2.97757 -7.79929
2 -7.42332 7.00428 -7.12889
2 7.18802 6.56146 -7.14649
2 -3.49119 10.6126 -5.65924
2 -1.12629 11.6566 -6.86879
2 3.06721 9.26349 -5.83997
2 -7.70591 -10.4247 -3.39159
2 -3.24731 -10.9845 -3.04351
2 0.890302 -10.8891 -2.34189
2 3.4411 -11.0821 -3.06952
2 5.49086 -9.33698 -3.08721
2 -9.22812 -5.16789 -3.55437
2 10.5347 -7.37 -4.07214
2 -11.1137 -3.20145 -3.67445
2 10.7089 -3.21347 -3.7336
2 -10.7356 -0.235975 -3.49855
2 10.3017 -0.446472 -4.21613
2 -10.9487 2.6631 -3.4794
2 10.4571 3.84654 -3.45587
2 -11.2071 6.47636 -3.41438
2 10.9979 6.63653 -3.46954
2 -7.52218 10.9138 -3.63336
2 -3.19308 11.0293 -2.85238
2 0.854853 10.9351 -2.4196
2 3.29904 11.1683 -3.1386
2 7.5084 10.6613 -3.66163
2 -7.6764 -10.6535 0.2381
2 -3.35193 -10.6543 -0.125364
2 2.79278 -11.016 -0.233931
2 7.63919 -11.3607 0.586777
2 -11.187 -6.57007 0.365414
2 11.036 -6.81298 0.419258
2 -10.5071 -1.8578 -1.38413
2 10.6762 -2.90584 -0.57961
2 -10.9112 2.72539 0.599052
2 10.7476 2.96895 0.342223
2 -11.6051 7.01442 -0.69206
2 11.6618 7.48512 -0.770306
2 -8.0859 11.3031 -1.01876
2 -3.19634 10.7527 -0.0825895
2 3.24725 10.881 -0.233359
2 7.43237 10.7098 0.127907
2 -7.59805 -10.9474 3.08342
2 -3.40198 -10.8876 3.42412
2 0.127342 -10.7995 3.09515
2 4.30692 -9.4602 3.96038
2 7.38553 -11.3789 3.25481
2 -11.4199 -6.46687 3.23344
2 11.2369 -7.39682 3.21372
2 -10.8568 -1.95121 2.73392
2 11.2153 -3.32827 4.48681
2 -10.9559 0.785631 2.80356
2 10.624 0.158768 3.31844
2 -11.0792 3.45193 3.25802
2 10.735 3.50666 3.16706
2 -9.3747 5.72849 3.1731
2 9.10803 5.71752 3.07935
2 -5.72896 9.29097 2.80889
2 -3.77689 11.3663 2.47135
2 -1.27372 10.6432 1.89312
2 2.87288 10.9924 2.66557
2 7.5122 10.8435 3.06061
2 -3.32572 -9.22588 5.63421
2 0.601622 -11.5629 7.28791
2 3.44896 -11.3041 7.11411
2 -7.26867 -6.63181 6.79355
2 6.89084 -7.36603 6.86317
2 -10.9939 -2.91499 6.80101
2 9.14571 -2.92102 6.13691
2 -11.2898 -0.115698 7.55399
2 11.1958 0.808919 7.87637
2 -10.2279 3.44935 7.8501
2 10.4781 3.40204 7.75079
2 -6.31412 7.25669 7.34018
2 6.81906 7.35684 7.22213
2 -3.03853 11.6633 7.0273
2 -0.37108 11.5831 6.79609
2 2.99723 10.7422 5.64078
2 -2.9397 -5.30123 9.10904
2 0.346676 -7.86705 11.3733
2 3.04895 -7.777 11.0493
2 -7.33683 -3.3393 11.1828
2 -2.7718 -3.33031 10.9026
2 0.0800011 -3.26409 11.53
2 2.92088 -3.06242 11.0721
2 5.29672 -3.06771 9.49056
2 -7.32944 -0.626181 11.6012
2 -2.58011 -0.463969 11.1353
2 2.34041 -0.132379 11.3349
2 6.9691 0.831873 11.782
2 -5.12498 3.1592 9.29402
2 -3.14788 3.47207 10.9133
2 -0.450275 3.44204 10.6086
2 2.0677 2.85488 10.921
2 5.99697 3.50202 11.0517
2 -2.64737 8.3241 11.2737
2 0.112872 8.18002 10.9805
2 2.90044 7.84886 10.6555
2 -4.61571 -5.69872 -11.1546
2 -1.20923 -5.48986 -10.841
2 1.38449 -5.73554 -11.2549
2 4.04945 -5.83641 -11.1517
2 -4.26468 -1.09885 -10.8132
2 4.80162 -1.60427 -11.4289
2 -4.8057 1.47 -11.2274
2 4.85378 2.34019 -11.2744
2 -3.81713 5.6499 -9.10365
2 -1.51741 5.80705 -10.6623
2 1.1294 5.54105 -10.8413
2 4.43127 4.22715 -9.44776
2 -5.26532 -8.96655 -6.8425
2 -1.21442 -9.32308 -6.64342
2 1.59111 -9.36826 -7.019
2 4.3009 -9.75159 -7.54298
2 -8.71431 -4.63588 -7.72483
2 8.00909 -5.70379 -7.74092
2 -8.66106 -1.71246 -7.48831
2 8.90716 -1.79696 -7.81676
2 -8.82243 1.22903 -7.71236
2 8.47088 2.03417 -7.45287
2 -9.00026 4.91173 -7.51198
2 9.18963 4.71624 -7.45488
2 -5.57452 9.06277 -6.64382
2 -1.54427 9.09538 -6.47911
2 0.950457 9.93501 -7.35995
2 5.47213 8.70294 -6.92338
2 -1.02413 -12.8058 -2.36724
2 1.61881 -13.3122 -3.29089
2 -9.3172 -8.13466 -3.54778
2 8.26703 -9.15305 -3.57147
2 -13.2006 -1.45721 -4.06968
2 13.0058 -1.96272 -4.24912
2 -13.1689 1.20504 -3.7802
2 11.6651 1.45981 -3.02641
2 -9.78199 8.89946 -3.49997
2 9.32789 8.69689 -3.42222
2 -1.26763 12.805 -2.37076
2 1.67484 13.392 -3.22336
2 -6.12518 -12.8423 0.0158564
2 -1.48072 -12.715 0.397877
2 3.3663 -13.5657 1.09134
2 5.84203 -13.2613 0.299875
2 -9.39541 -8.57679 0.513035
2 9.43646 -9.03963 0.564669
2 -13.0456 -4.6915 0.165497
2 12.5137 -4.32591 0.40164
2 -12.3494 -1.98766 0.646753
2 12.9249 -1.58707 -0.00113402
2 -12.7698 0.797498 0.944002
2 12.5323 0.938673 -0.44994
2 -13.5487 5.13437 -0.610612
2 13.467 5.36793 -0.178575
2 -9.81081 9.10833 -0.986909
2 9.70243 9.47086 -0.81043
2 -6.29291 13.4414 -0.789202
2 -1.54946 12.8506 0.353068
2 3.01168 13.3312 1.36146
2 5.53376 12.5461 0.620443
2 -1.75648 -12.9023 3.14347
2 2.70205 -11.3655 2.4985
2 -9.85316 -8.77015 3.05613
2 9.35618 -9.4138 3.12552
2 -12.5673 -2.63947 4.84219
2 12.9915 -1.25813 4.2459
2 -13.2828 1.83453 3.74056
2 12.7835 1.98229 3.97233
2 -8.32479 8.43139 3.27505
2 9.25702 8.56419 3.38701
2 -2.02494 13.3928 2.87741
2 2.53874 13.1987 4.12581
2 -5.70007 -8.87362 6.79818
2 -1.2104 -9.47481 7.34311
2 1.50279 -9.18335 7.09032
2 5.03183 -9.2462 6.66793
2 -9.44818 -5.07022 7.00738
2 8.81568 -5.39558 7.11379
2 -8.86266 -1.41877 7.14276
2 9.29611 -0.999573 7.96666
2 -8.92541 1.2594 7.55818
2 8.55978 1.729 7.25125
2 -8.25339 5.33146 7.65678
2 8.72475 5.3701 7.72081
2 -4.63609 9.50774 7.11898
2 -1.90145 9.36578 6.56097
2 0.885511 9.24059 6.34669
2 5.03506 9.36272 6.77514
2 -5.2124 -3.97465 9.43625
2 -1.16773 -5.55038 11.1306
2 1.48951 -5.43105 11.0966
2 3.64742 -5.32639 9.50926
2 -5.01736 -1.73634 11.196
2 4.91206 -1.14552 11.3162
2 -4.85605 1.05323 11.1445
2 4.41053 1.47734 11.0698
2 -3.52018 5.40611 8.93235
2 -1.65217 5.83122 10.9511
2 1.26406 5.67627 10.7958
2 3.82055 4.94041 9.83012
2 -5.36546 -9.16501 -3.88192
2 -1.05003 -10.9497 -4.41332
2 1.60959 -11.2005 -5.03578
2 3.64953 -9.35175 -5.02279
2 -5.5578 -10.814 -1.6197
2 5.41047 -11.223 -1.10184
2 -5.43991 -10.7222 1.62406
2 5.21034 -10.7973 1.59277
2 -5.42714 -9.20414 3.95095
2 -1.59677 -11.2424 5.45477
2 2.02765 -10.6827 4.99557
2 5.58434 -11.548 5.32016
2 -4.93179 -7.30307 -8.96675
2 -1.22937 -7.38424 -8.76838
2 1.57419 -7.39223 -9.04093
2 4.18815 -7.85813 -9.49396
2 -9.23646 -6.62086 -5.7828
2 8.09445 -7.33595 -5.52783
2 -9.13397 -6.70881 -1.32492
2 9.15773 -7.34498 -1.67686
2 -9.07139 -6.46852 2.10208
2 8.89734 -6.85636 2.17435
2 -9.42518 -6.61432 4.86294
2 9.10213 -7.43881 4.93921
2 -5.40415 -6.77681 8.72009
2 -1.34299 -7.6499 9.30913
2 1.43105 -7.19599 9.0033
2 5.08393 -7.586 9.13885
2 -1.24216 -3.94234 -13.0194
2 1.34041 -3.96414 -13.2903
2 -8.46116 -2.99358 -9.96255
2 7.8193 -3.86901 -9.54507
2 -13.0568 -3.05854 -1.92552
2 13.0259 -3.48675 -2.06718
2 -13.5422 -3.60409 2.54156
2 11.1777 -2.1562 2.11192
2 -9.22429 -3.17552 9.03953
2 8.03544 -3.20731 8.72211
2 -1.71681 -4.15673 13.3177
2 1.97402 -3.98211 13.3977
2 -4.56682 -0.0392496 -13.5039
2 -1.97745 0.138177 -14.5263
2 1.68866 1.00193 -13.0745
2 4.43492 0.535663 -13.2546
2 -8.95537 -0.474571 -9.95592
2 8.73342 0.450231 -9.53594
2 -13.0717 -0.0655757 -6.3906
2 12.3849 0.331643 -5.49679
2 -12.8331 -0.225862 -1.56581
2 11.657 -1.10034 -2.1483
2 -13.248 -0.829772 3.09164
2 12.8782 0.169719 1.97125
2 -13.1528 -0.123028 5.64263
2 13.2258 0.559798 6.12489
2 -9.29542 -0.436584 9.67452
2 9.10288 0.993129 9.76148
2 -5.17298 0.0170759 13.4438
2 -1.36098 -0.318039 13.6963
2 1.30685 -0.100928 14.0271
2 4.92239 0.435287 13.5827
2 -1.67335 4.58155 -13.1344
2 1.08128 4.23479 -13.1862
2 -8.14235 3.28976 -9.44843
2 9.29879 3.13126 -9.67075
2 -12.9287 2.52142 -1.27344
2 12.7878 3.33964 -1.6436
2 -13.3517 3.3716 1.51891
2 13.0862 3.07046 1.29948
2 -7.98275 3.32158 9.24239
2 8.28207 3.62397 9.59559
2 -1.30545 3.94792 12.994
2 1.46205 4.2759 13.2273
2 -5.40954 7.63511 -8.78078
2 -1.74835 7.56276 -8.57296
2 0.763387 8.11918 -9.58004
2 5.27525 7.00813 -9.10453
2 -9.33274 6.7629 -5.24541
2 9.35427 6.70277 -5.52591
2 -9.19253 6.77202 -1.78543
2 9.09571 6.8505 -1.53229
2 -9.34024 7.23243 0.867487
2 9.63583 7.46948 0.94451
2 -8.46004 6.87005 5.46671
2 8.96686 6.92342 5.44808
2 -4.40446 7.95707 9.276
2 -1.59757 7.53327 8.8142
2 1.22618 7.42767 8.55027
2 4.74968 7.63476 8.84216
2 -5.1517 9.31742 -3.86104
2 -1.07367 10.8856 -4.34508
2 1.34588 11.3768 -5.15351
2 5.10908 9.32217 -4.05955
2 -5.53251 10.993 -1.7567
2 5.56189 11.0814 -1.69593
2 -5.78266 11.3104 0.785328
2 5.25172 10.3126 1.7602
2 -4.80589 10.878 4.98647
2 -2.01654 11.352 4.68129
2 0.676838 11.0151 4.23774
2 4.63376 9.18894 4.00909
2 -10.5921 -4.27157 -5.8457
2 -11.03 -1.68218 -5.89992
2 -10.8503 1.21237 -5.74202
2 -9.02926 4.64931 -3.4373
2 -10.7735 -4.45801 -1.26608
2 -11.0118 4.51643 -1.54802
2 -10.9197 -4.30888 1.6951
2 -11.2474 5.25368 1.20597
2 -10.5396 -4.24597 4.38841
2 -10.5833 -0.8753 5.13242
2 -10.9163 1.76347 5.47818
2 -9.27207 4.09744 5.42916
2 -6.58616 -5.04725 -9.40144
2 -6.37083 -1.52465 -9.13813
2 -6.75091 1.06101 -9.38557
2 -6.71677 5.3792 -9.05536
2 -7.46529 -8.62299 -5.41179
2 -7.42546 8.58582 -4.8472
2 -7.30394 -8.66673 -1.54171
2 -7.17565 8.76497 -2.09255
2 -7.27262 -8.49566 1.99196
2 -7.6732 9.31481 0.706846
2 -7.83385 -8.79707 4.95911
2 -6.73853 9.13715 5.43735
2 -7.59069 -5.39032 9.11942
2 -6.97372 -1.7986 9.09738
2 -6.97863 0.947096 9.48645
2 -6.19599 5.73415 9.5691
2 -2.61276 -1.69159 -12.8068
2 -3.34175 2.29809 -13.4756
2 -3.1331 -9.33578 -8.52829
2 -3.57775 9.70994 -8.28105
2 -3.69765 -12.9376 -1.26788
2 -3.7153 13.1941 -1.35869
2 -3.86482 -12.9557 1.48575
2 -4.2242 13.6581 1.25638
2 -3.65408 -8.96506 8.55384
2 -2.66192 10.0276 9.03259
2 -3.34765 -2.00649 13.2803
2 -2.86436 1.63563 12.9643
2 -0.0242037 -6.37291 -13.2743
2 -0.0359718 -1.41222 -13.2558
2 -0.648266 2.19365 -13.5723
2 -0.115754 6.65278 -12.875
2 -0.344041 -9.83158 -9.12188
2 -1.20754 10.0691 -9.08725
2 -0.186626 -13.474 -5.12138
2 -0.577317 13.43 -4.83258
2 1.2046 -13.1754 -0.651499
2 1.05994 12.6905 -0.547009
2 0.763817 -13.195 2.00931
2 0.599616 12.8286 2.19766
2 0.435721 -12.8527 4.87948
2 -0.137007 13.5627 4.94795
2 0.488312 -9.90121 9.44212
2 0.0196908 9.82454 8.78649
2 0.262941 -5.93736 13.3501
2 0.128219 -2.35414 13.9719
2 0.0551378 1.7947 12.6871
2 -0.131662 6.46127 13.0195
2 2.7161 -1.48774 -13.1459
2 3.46395 2.99855 -13.6394
2 2.49236 -9.90436 -9.6012
2 3.19782 8.9528 -8.57279
2 3.83918 -13.3196 -1.58217
2 3.63362 13.2673 -1.35771
2 5.10045 -12.9364 2.95219
2 5.10141 12.4488 3.25891
2 3.16831 -9.40564 9.01802
2 2.87002 9.61823 8.36113
2 3.34972 -1.71434 13.4689
2 2.79399 1.85607 13.2532
2 6.3247 -6.21374 -9.86546
2 6.77178 -1.54311 -9.41226
2 6.58993 2.31716 -9.31417
2 7.1916 4.87734 -9.40396
2 6.3038 -9.52064 -5.61175
2 7.50866 8.66774 -5.4217
2 7.18794 -9.12866 -0.934209
2 7.1343 8.8604 -1.85902
2 6.98383 -8.94223 1.81755
2 7.31568 8.60102 1.55289
2 6.94522 -9.12733 4.59783
2 7.14096 9.05222 5.16107
2 6.48068 -5.37641 8.88242
2 7.12935 -0.971645 9.77482
2 6.52597 1.66768 9.16014
2 6.44546 5.61416 9.22194
2 8.94149 -5.46397 -3.7957
2 11.1161 -1.99623 -6.09544
2 10.2438 2.0294 -5.37484
2 11.2661 4.77799 -5.79183
2 11.0404 -5.35786 -1.95692
2 10.9704 5.106 -1.18917
2 10.7458 -4.8693 2.24202
2 11.3639 5.44078 1.35911
2 9.02134 -4.86563 4.25863
2 11.007 -0.89667 5.83367
2 10.7388 1.82363 5.50328
2 9.16983 4.05117 5.41736
1 0.127924 -0.189621 -10.8261
1 -3.30231 -7.06163 -7.1174
1 0.208581 -6.994 -6.77576
1 3.48436 -7.37738 -6.70051
1 -6.64851 -3.32205 -7.27364
1 -3.39608 -3.56499 -7.07109
1 0.108814 -3.46857 -7.09987
1 3.51341 -3.44844 -7.22713
1 6.70216 -3.57121 -7.37127
1 -6.73683 -0.0738419 -6.98894
1 -3.06282 0.0606265 -7.18814
1 -0.11187 0.0449157 -7.23553
1 3.57342 0.0203083 -7.24615
1 6.87881 0.0537273 -7.4198
1 -6.97469 3.26957 -7.08398
1 -3.55342 3.71924 -7.2034
1 -0.0741597 3.7281 -7.04977
1 3.33958 3.5394 -7.05528
1 6.79817 3.71964 -7.11258
1 -3.55709 7.46008 -6.96438
1 0.32792 7.22367 -6.85948
1 3.44851 6.97697 -6.68048
1 -7.09572 -6.75977 -3.57928
1 -3.62092 -7.03342 -3.51058
1 0.0674992 -6.95634 -3.42636
1 3.55301 -7.16893 -3.46859
1 6.99337 -7.09613 -3.19698
1 -6.95895 -3.48394 -3.66462
1 -3.50228 -3.57734 -3.58954
1 0.0996466 -3.42716 -3.53348
1 3.62086 -3.42215 -3.61277
1 7.00461 -3.47518 -3.84281
1 -6.96287 -0.142583 -3.45912
1 -3.42837 -0.00372711 -3.53689
1 0.0955235 0.0731203 -3.54515
1 3.6639 0.072269 -3.57354
1 7.25729 0.0141361 -3.70256
1 -7.03494 3.37432 -3.47019
1 -3.43539 3.54133 -3.50909
1 0.0875898 3.51111 -3.48703
1 3.71354 3.55608 -3.45925
1 7.27239 3.43103 -3.44952
1 -7.23342 6.64576 -3.53008
1 -3.77672 7.0129 -3.32034
1 -0.13224 7.01749 -3.45023
1 3.68929 6.99767 -3.47514
1 7.31355 6.8835 -3.50421
1 -0.222109 -10.709 -0.146997
1 -7.03977 -6.77918 0.17668
1 -3.56089 -7.08459 -0.115211
1 -0.0357414 -7.1018 -0.203863
1 3.41125 -7.05034 0.0211665
1 7.25141 -6.85547 0.149271
1 -6.83817 -3.49551 0.060024
1 -3.52787 -3.54438 -0.0765806
1 0.0701361 -3.57959 -0.0799029
1 3.54198 -3.62204 0.0555925
1 7.17003 -3.53898 0.0750988
1 -10.6711 0.780251 -1.00291
1 -7.01057 -0.237947 0.127135
1 -3.34982 -0.082687 0.0253268
1 0.182018 -0.00400935 0.00288146
1 3.59231 -0.0691453 -0.0852228
1 7.08623 0.0477485 -0.025437
1 10.6883 -0.0565561 0.463842
1 -7.18733 3.25395 0.107735
1 -3.51328 3.46093 0.105285
1 0.146221 3.46497 -0.0703043
1 3.64569 3.50478 -0.0470907
1 7.04062 3.44972 0.100827
1 -6.9878 7.02488 -0.0725076
1 -3.6635 7.04336 0.0495901
1 0.0426089 7.10899 -0.148726
1 3.50247 7.14334 -0.230986
1 7.13051 6.98596 0.00463509
1 -0.579388 10.711 -0.604551
1 -7.02082 -6.62807 3.8804
1 -3.47523 -7.22421 3.47836
1 -0.038694 -7.1732 3.37348
1 3.38025 -7.08074 3.38479
1 6.97432 -6.71882 3.75993
1 -6.70694 -3.27065 3.58191
1 -3.31331 -3.53712 3.46249
1 0.105379 -3.48423 3.38708
1 3.43662 -3.59085 3.46929
1 7.09583 -3.35727 3.61331
1 -6.63415 -0.0987333 3.65869
1 -3.31612 -0.0697427 3.52911
1 0.0713859 0.00990747 3.60117
1 3.53349 9.52373e-05 3.42099
1 7.05107 -0.140424 3.64952
1 -7.0274 3.37162 3.50182
1 -3.51436 3.43607 3.65471
1 -0.0327398 3.52235 3.51354
1 3.53755 3.58385 3.48216
1 7.00435 3.56772 3.53706
1 -6.78286 6.87689 3.5976
1 -3.61225 6.91238 3.26541
1 0.121027 6.83951 3.25943
1 3.39495 7.14088 3.38965
1 6.85591 7.11062 3.63746
1 -3.20229 -7.15378 7.19037
1 -0.0113551 -7.14628 6.85582
1 3.29534 -7.3041 7.20033
1 -7.08407 -3.63317 7.31563
1 -3.28734 -3.60578 7.16721
1 0.153234 -3.5839 6.91955
1 3.36673 -3.57107 7.26763
1 6.64496 -3.35425 7.15585
1 -6.69904 -0.182472 7.1584
1 -3.29435 -0.27569 7.17857
1 0.181322 0.0964071 7.13318
1 3.38109 0.0193009 7.06888
1 6.77495 -0.0480075 7.07723
1 -6.94323 3.11349 7.2395
1 -3.63878 3.36097 7.21715
1 0.00250298 3.42827 6.97573
1 3.41519 3.72985 7.13405
1 6.80223 3.66347 7.31286
1 -3.43604 7.24023 6.9572
1 -0.270929 6.90498 6.70404
1 3.13641 7.45441 6.86443
1 -0.0699278 -0.791353 11.7856
1 -5.12995 -5.24544 -7.13574
1 -1.57287 -5.27264 -7.11749
1 1.98751 -5.33074 -7.07512
1 4.20297 -5.59413 -8.18876
1 -5.00217 -1.63494 -6.98063
1 -1.67554 -1.82112 -7.06879
1 1.74125 -1.61988 -7.12036
1 5.21083 -1.68216 -7.27738
1 -5.05891 1.83554 -7.03092
1 -1.63906 1.92633 -6.96342
1 1.5453 1.96897 -7.21362
1 5.20756 1.85084 -7.13933
1 -5.15788 5.38255 -6.88513
1 -1.78689 5.42392 -7.03884
1 1.75752 5.26039 -6.84032
1 4.96005 5.24985 -7.14662
1 -2.38476 -8.93958 -4.04186
1 1.82001 -8.9663 -3.35256
1 -5.28129 -5.21348 -3.62937
1 -1.66763 -5.28843 -3.55591
1 1.88195 -5.15761 -3.55334
1 5.2609 -5.30314 -3.57531
1 -8.99165 -2.19913 -3.91451
1 -5.17124 -1.75736 -3.5634
1 -1.60984 -1.72981 -3.5993
1 1.85664 -1.63548 -3.59463
1 5.29908 -1.72201 -3.58568
1 8.56313 -1.84067 -3.62276
1 -8.71109 1.45746 -3.60769
1 -5.22397 1.78851 -3.3781
1 -1.70749 1.72974 -3.53502
1 1.9011 1.83362 -3.4996
1 5.43265 1.72406 -3.58158
1 9.04031 1.74934 -3.32812
1 -5.29581 5.11298 -3.51702
1 -1.81131 5.3533 -3.45556
1 1.86209 5.18254 -3.47879
1 5.54794 5.18041 -3.42106
1 -2.36527 8.85302 -3.69338
1 2.17054 8.93044 -3.38702
1 -5.36139 -8.7462 0.109421
1 -1.76657 -8.74983 -0.118885
1 1.31159 -8.8948 -0.484664
1 5.07977 -8.72008 -0.00027889
1 -8.67655 -4.86879 0.249761
1 -5.08128 -5.22275 -0.00291843
1 -1.64391 -5.31371 -0.124522
1 1.74867 -5.31006 0.0051804
1 5.34974 -5.25566 0.0130029
1 9.01764 -5.1691 -0.0433501
1 -9.55695 -1.01486 0.576027
1 -5.1625 -1.78578 -0.00194851
1 -1.65899 -1.83458 -0.0294838
1 1.82194 -1.82249 -0.0194524
1 5.33239 -1.81961 -0.0393759
1 8.72056 -1.58544 0.0960063
1 -8.76459 1.31362 0.347838
1 -5.2664 1.66304 0.0349034
1 -1.64151 1.8104 0.0113276
1 1.94362 1.71768 -0.0121539
1 5.32246 1.71176 -0.0383913
1 8.86539 1.4293 0.10949
1 -9.04764 4.60715 0.0166785
1 -5.50925 5.20664 0.0510045
1 -1.81745 5.16456 -0.0349625
1 1.79362 5.24384 -0.0732994
1 5.28144 5.27688 0.0887147
1 8.73357 5.16914 0.327793
1 -5.291 9.10677 0.0235639
1 -1.70274 8.64754 0.0283376
1 1.67236 9.07785 -0.685578
1 5.26249 8.82401 -0.00592539
1 -1.77464 -8.99368 3.26755
1 1.69534 -8.78923 3.36651
1 -5.10828 -5.22486 3.55625
1 -1.64651 -5.35142 3.41539
1 1.67041 -5.40131 3.39448
1 5.19083 -5.22508 3.53916
1 -8.66082 -2.1858 4.32197
1 -4.90906 -1.77654 3.64561
1 -1.64568 -1.77517 3.45688
1 1.77837 -1.72021 3.44525
1 5.20353 -1.8004 3.57813
1 9.06045 -1.86997 3.80553
1 -8.94197 1.97494 3.73038
1 -5.10469 1.65803 3.61081
1 -1.62244 1.81373 3.61646
1 1.89528 1.7771 3.5165
1 5.19617 1.73899 3.48675
1 8.66853 1.76037 3.73949
1 -5.27156 5.04199 3.41829
1 -1.88324 5.25664 3.43681
1 1.77025 5.19709 3.4549
1 5.12999 5.37667 3.44803
1 -3.14503 9.09253 4.07747
1 1.67315 8.82556 3.66994
1 -4.985 -5.31401 7.02366
1 -1.61093 -5.45376 7.01219
1 1.7193 -5.38935 6.97646
1 4.87193 -5.56367 6.96073
1 -5.00558 -2.0349 7.31847
1 -1.42114 -1.87697 7.19603
1 1.57936 -1.72244 7.19189
1 4.99214 -1.73451 7.0045
1 -5.13597 1.518 7.29177
1 -1.71768 1.65101 7.02382
1 1.87678 1.94526 7.0589
1 5.15743 1.90766 7.00618
1 -5.41323 4.89714 7.30719
1 -2.06257 5.24508 6.9205
1 1.54088 5.33338 7.01349
1 4.88538 5.48838 7.20421
1 -5.19176 -6.92183 -5.31123
1 -1.85103 -7.09232 -5.28117
1 1.81111 -7.01882 -5.08025
1 5.33948 -7.21076 -4.95829
1 -5.28605 -7.0124 -1.87644
1 -1.81366 -7.02322 -1.96517
1 1.86761 -6.98375 -1.74118
1 5.22944 -7.0776 -1.63278
1 -5.26872 -6.94016 1.88366
1 -1.71806 -7.1391 1.61268
1 1.64775 -7.18334 1.61093
1 5.23398 -7.02855 1.81303
1 -4.94137 -7.01264 5.38475
1 -1.73948 -7.08621 5.21958
1 1.67348 -7.11522 5.20355
1 4.99719 -7.1886 5.17587
1 -1.57332 -3.50484 -8.97545
1 2.19733 -3.98025 -9.10169
1 -5.23272 -3.45333 -5.33172
1 -1.66752 -3.56539 -5.37233
1 1.82175 -3.32361 -5.40079
1 5.17839 -3.44207 -5.44179
1 -8.53361 -3.46603 -1.82551
1 -5.18959 -3.48119 -1.80579
1 -1.64793 -3.52731 -1.88267
1 1.87786 -3.49287 -1.87567
1 5.35332 -3.45352 -1.834
1 8.62282 -3.55706 -1.91169
1 -8.64688 -3.7756 2.6597
1 -5.13053 -3.4044 1.82561
1 -1.67371 -3.60428 1.59426
1 1.75881 -3.55241 1.66038
1 5.26067 -3.55462 1.82853
1 8.75431 -3.30527 1.74341
1 -5.19546 -3.73916 5.47526
1 -1.5553 -3.58556 5.26524
1 1.71902 -3.51682 5.14957
1 5.03732 -3.50125 5.43529
1 -1.23785 -3.39485 9.01711
1 1.60629 -3.48325 8.87943
1 -4.58084 0.264026 -8.83154
1 -1.79358 -0.498867 -9.40247
1 1.69828 -0.0434775 -8.86098
1 4.98225 0.146315 -9.16641
1 -8.68922 -0.226635 -5.27581
1 -5.15722 0.000256521 -5.22142
1 -1.63113 0.0694604 -5.35117
1 1.87065 0.168588 -5.32398
1 5.4344 0.0515115 -5.46084
1 8.82516 -0.0687727 -5.71149
1 -8.69642 -0.26879 -1.80203
1 -5.30641 -0.0654358 -1.83671
1 -1.60692 -0.0298825 -1.75049
1 1.91366 -0.0316041 -1.78597
1 5.34038 -0.0167786 -1.85193
1 9.59313 -0.00898672 -1.59035
1 -8.72296 -0.191772 2.66184
1 -5.21377 0.0082733 1.77947
1 -1.64165 -0.0627446 1.7896
1 1.82904 0.0188403 1.72505
1 5.34367 -0.0834852 1.7297
1 8.75574 -0.170213 1.97174
1 -8.47342 0.0477758 5.07729
1 -5.00001 -0.0788249 5.55372
1 -1.63744 -0.0644414 5.34451
1 1.84237 0.0181143 5.29451
1 5.11153 0.00097773 5.29922
1 8.66856 -0.0152948 5.43665
1 -4.71676 -0.241297 9.03315
1 -1.4853 -0.0842061 8.80924
1 2.15555 0.567765 8.99961
1 4.89333 -0.0250731 8.877
1 -1.69503 3.79842 -8.81093
1 1.60246 3.77043 -8.85576
1 -5.15566 3.47273 -5.34185
1 -1.7517 3.54736 -5.23852
1 1.81299 3.48349 -5.15519
1 5.39461 3.60154 -5.2699
1 -9.10741 2.79179 -1.53984
1 -5.26793 3.46909 -1.62285
1 -1.67022 3.53921 -1.75993
1 1.8698 3.49653 -1.68316
1 5.47131 3.51885 -1.75587
1 8.86288 3.33352 -1.56283
1 -8.8093 3.4251 1.94391
1 -5.22808 3.30465 1.79661
1 -1.7331 3.43733 1.83408
1 1.82732 3.47828 1.72125
1 5.18805 3.58153 1.79452
1 8.70252 3.24652 1.82733
1 -5.20638 3.42161 5.44645
1 -1.9164 3.51873 5.28082
1 1.73753 3.49763 5.24436
1 5.1943 3.67846 5.44854
1 -1.80686 3.30628 8.75932
1 1.61164 3.5734 8.7225
1 -5.48122 6.93054 -5.19057
1 -1.74042 7.00999 -5.21436
1 1.82652 7.09019 -4.94295
1 5.53391 6.80221 -5.20452
1 -5.45396 6.77752 -1.71015
1 -1.85189 7.10203 -1.70685
1 1.76206 7.08052 -1.89106
1 5.42705 6.98012 -1.77855
1 -5.31873 7.00247 1.69459
1 -1.66579 6.93266 1.73372
1 1.69659 7.10708 1.5183
1 5.14755 7.26092 1.86587
1 -4.78957 7.68457 5.11616
1 -1.87271 7.13075 5.04294
1 1.57123 6.93824 5.19985
1 5.06491 7.0891 5.3599
1 -6.98598 -5.07531 -5.37412
1 -7.02154 -1.83375 -5.36961
1 -6.94522 1.61972 -5.24277
1 -7.22989 5.11718 -5.31376
1 -6.97376 -5.21547 -1.76076
1 -6.91609 -1.78514 -1.7236
1 -7.07883 1.51041 -1.64504
1 -7.16201 4.99552 -1.6557
1 -6.87339 -5.14861 1.97861
1 -7.13513 -1.8603 1.7464
1 -6.94606 1.52953 1.86015
1 -7.37752 5.4173 1.63973
1 -7.86248 -4.39256 5.2858
1 -6.69955 -1.94664 5.58496
1 -6.83797 1.6253 5.48478
1 -6.67311 5.17185 5.29481
1 -3.63905 -2.11414 -8.81627
1 -2.87338 1.77666 -8.95641
1 -3.45004 -5.22394 -5.4078
1 -3.34636 -1.70041 -5.29899
1 -3.49113 1.74505 -5.28606
1 -3.42716 5.45362 -5.28122
1 -3.67837 -8.77488 -1.83164
1 -3.47878 -5.25634 -1.88495
1 -3.34311 -1.73119 -1.77825
1 -3.43719 1.73345 -1.70903
1 -3.58077 5.15603 -1.70929
1 -3.62377 8.72518 -1.47333
1 -3.66325 -8.81379 1.74057
1 -3.35898 -5.36483 1.68642
1 -3.34121 -1.81368 1.78348
1 -3.28953 1.63919 1.81061
1 -3.61503 5.17088 1.73469
1 -3.44167 8.73922 1.70731
1 -3.44772 -5.2788 5.15836
1 -3.2755 -1.88393 5.40668
1 -3.44093 1.72471 5.29716
1 -3.60299 5.38619 5.2166
1 -3.16963 -1.9699 8.99307
1 -3.168 1.51105 9.06326
1 0.209058 -5.14943 -8.76561
1 0.177944 -1.79424 -8.87565
1 -0.260645 1.56525 -9.11243
1 0.0920459 5.62946 -8.5554
1 0.124284 -8.85188 -4.79607
1 0.0435231 -5.23863 -5.2646
1 0.174868 -1.67414 -5.34439
1 0.0666566 1.78398 -5.30285
1 0.0874033 5.31576 -5.10038
1 0.345136 8.90032 -4.90452
1 -0.689163 -9.08086 -2.22813
1 0.0898829 -5.27968 -1.85788
1 0.0793938 -1.77911 -1.76065
1 0.0851539 1.71849 -1.75873
1 -0.0313646 5.32395 -1.70959
1 -0.416552 8.87243 -2.04772
1 -0.0532442 -8.81876 1.4684
1 0.00100145 -5.37283 1.68587
1 0.0567972 -1.76162 1.7372
1 0.085823 1.80287 1.82171
1 0.0234977 5.22465 1.65805
1 0.923949 9.84258 1.3713
1 -0.0980651 -8.9589 5.0803
1 0.0538616 -5.32741 5.07571
1 0.104481 -1.81258 5.25664
1 0.0534068 1.74551 5.33539
1 -0.141607 5.17152 5.10504
1 -0.633359 8.96254 4.21223
1 0.0142072 -5.26915 8.76503
1 0.393136 -1.24198 9.39992
1 0.0595741 1.09526 10.2267
1 -0.288607 5.1105 8.72577
1 3.42223 -1.77637 -9.07747
1 3.38427 1.91628 -8.89967
1 3.66099 -5.31536 -5.42946
1 3.5809 -1.60013 -5.35849
1 3.71435 1.7773 -5.30588
1 3.53005 5.20461 -5.1752
1 3.4147 -8.92219 -1.64068
1 3.59766 -5.25583 -1.80898
1 3.56887 -1.7504 -1.78556
1 3.6523 1.74746 -1.82756
1 3.60139 5.22914 -1.7309
1 3.9156 8.85103 -1.88055
1 3.34085 -8.9379 1.58236
1 3.38259 -5.31457 1.70272
1 3.46385 -1.81986 1.70833
1 3.6248 1.77298 1.72188
1 3.51743 5.39621 1.70625
1 3.24256 8.82144 1.55165
1 3.36421 -5.42589 5.24911
1 3.41572 -1.77599 5.22785
1 3.54579 1.82189 5.24782
1 3.31909 5.40138 5.26208
1 3.16986 -1.61439 8.91599
1 3.85748 2.44935 9.01179
1 6.65769 -5.33154 -5.63664
1 7.04609 -1.75146 -5.6301
1 7.20728 1.84295 -5.3503
1 7.4579 5.06101 -5.14421
1 6.91706 -5.24629 -1.74192
1 7.04025 -1.74638 -1.77604
1 7.14678 1.6496 -1.79931
1 7.17894 5.23316 -1.61528
1 6.96675 -5.22694 1.913
1 7.01614 -1.75577 1.79263
1 6.9224 1.63066 1.8246
1 6.95079 5.36434 1.88613
1 6.74547 -5.09267 5.43899
1 6.92978 -1.67841 5.36263
1 6.80658 1.8049 5.31692
1 6.79221 5.38424 5.26934
