930
 Atoms. Timestep: 500
2 -0.108507 -0.320805 -11.8173
2 -3.77719 -8.02426 -7.66257
2 0.11166 -8.00371 -7.52853
2 3.7208 -7.96551 -7.41276
2 -7.43999 -4.11984 -8.1245
2 -3.79265 -3.99261 -7.86111
2 -0.0115722 -4.07145 -7.88781
2 3.9018 -4.07384 -7.78784
2 7.74852 -4.11756 -7.73695
2 -7.82842 -0.149997 -7.75814
2 -3.87545 -0.121446 -7.86252
2 -0.0185496 -0.0579836 -7.92742
2 3.76809 -0.0137826 -7.87879
2 7.61809 -0.092509 -7.87483
2 -7.7969 3.86685 -7.93827
2 -3.953 3.93539 -7.94009
2 -0.0741844 3.91045 -7.96272
2 3.77912 3.95175 -7.91693
2 7.59894 3.93485 -8.05613
2 -3.95876 7.93802 -8.0511
2 -0.0124674 7.95752 -7.98191
2 3.80052 7.94694 -7.84916
2 -7.84535 -7.93473 -3.99622
2 -3.83605 -7.89855 -3.73281
2 0.02175 -7.87321 -3.74521
2 3.79889 -7.88832 -3.7019
2 7.76237 -7.75279 -3.68846
2 -7.83724 -3.99282 -4.07402
2 -3.89716 -3.89263 -3.87054
2 0.0149044 -3.87716 -3.9236
2 3.79311 -3.98546 -3.8707
2 7.75795 -3.89512 -3.93486
2 -7.75398 -0.00800512 -4.09727
2 -3.85394 0.0174963 -4.06296
2 -0.0437319 0.0188439 -3.98473
2 3.8585 0.043113 -4.00287
2 7.74363 0.00939126 -4.03873
2 -7.83217 3.99665 -4.02482
2 -3.93225 3.95349 -4.02527
2 -0.0507514 3.8464 -4.02885
2 3.79348 3.89882 -4.01995
2 7.73297 3.87862 -4.06723
2 -7.71339 7.93182 -4.05672
2 -3.88987 7.87075 -3.90913
2 -0.0990339 7.79691 -4.03942
2 3.74283 7.77897 -3.98222
2 7.74735 7.68421 -3.8987
2 -0.216142 -11.5746 0.371372
2 -7.7792 -7.88033 -0.0293758
2 -3.99065 -7.74148 0.0494148
2 -0.0142626 -7.73652 0.132363
2 3.85765 -7.8389 0.0988026
2 7.69026 -7.80013 0.0298128
2 -7.81771 -3.86374 -0.19446
2 -3.97864 -3.85548 -0.147578
2 -0.00732303 -3.81819 0.0525959
2 3.8253 -3.90013 -0.0515638
2 7.7624 -3.81399 -0.0579377
2 -11.7165 -0.0660385 -0.547609
2 -7.80908 0.0685727 -0.127164
2 -3.97158 0.136351 -0.194999
2 -0.0535135 0.00441117 -0.087368
2 3.88037 -0.0535908 -0.0898392
2 7.70123 -0.0465553 -0.0898203
2 11.6645 0.071671 -0.368408
2 -7.8805 3.97747 -0.154736
2 -3.97513 4.00948 -0.0645495
2 -0.0122181 3.924 -0.0889048
2 3.81632 3.86518 -0.0734495
2 7.7058 3.92831 -0.0851216
2 -7.75019 8.01814 -0.0670789
2 -3.84584 7.88117 -0.0942776
2 0.0118292 7.79425 -0.129145
2 3.76434 7.89442 -0.0381998
2 7.5839 7.77933 -0.255722
2 0.0451335 11.7999 -0.0143728
2 -7.87193 -7.23294 3.9388
2 -3.9801 -7.53121 4.0365
2 -0.104746 -7.72259 4.17899
2 3.8532 -7.65586 4.0689
2 7.7407 -7.73042 3.98576
2 -7.79519 -3.79472 3.71838
2 -3.87567 -3.80127 3.8115
2 -0.0824135 -3.76316 3.8019
2 3.87539 -3.89902 3.87663
2 7.82405 -3.7838 3.84226
2 -7.81236 0.113964 3.57952
2 -3.9248 0.0400738 3.75984
2 -0.0303459 0.0150972 3.82314
2 3.84667 0.000326798 3.86719
2 7.69767 0.022253 3.79873
2 -7.83584 3.92056 3.69387
2 -3.8635 3.93375 3.82741
2 -0.062157 3.90167 3.82185
2 3.85739 3.82024 3.79429
2 7.71527 3.89015 3.72257
2 -7.7197 7.95423 3.61226
2 -3.903 7.87781 3.80923
2 0.075243 7.88771 3.82606
2 3.86247 7.95594 3.70627
2 7.69112 8.00234 3.67853
2 -3.94854 -7.70029 7.7825
2 -0.114793 -7.33783 7.9177
2 3.72442 -7.40548 8.52054
2 -7.96476 -3.4991 7.76199
2 -3.9786 -3.64881 7.8039
2 -0.156817 -3.75485 7.83148
2 3.87063 -3.74099 7.99862
2 7.94269 -3.68886 7.66906
2 -3.90264 0.0848093 7.74635
2 -0.076153 0.133021 7.74814
2 3.8249 0.0591881 7.7733
2 7.81668 0.0707504 7.88412
2 -7.77999 3.79332 7.66081
2 -3.84453 3.95213 7.58802
2 -0.0190613 3.97542 7.67341
2 3.808 3.90102 7.62471
2 7.63224 3.98525 7.69504
2 -3.95329 7.73341 7.75065
2 -0.00183409 7.89744 7.69444
2 3.89163 7.92778 7.49024
2 0.129854 0.12135 11.6835
2 -5.55994 -5.90739 -7.7578
2 -1.94338 -6.08813 -7.73737
2 1.94995 -5.91713 -7.65179
2 5.74612 -6.0707 -7.6432
2 -5.76375 -2.06017 -7.8024
2 -1.88267 -2.07774 -7.89181
2 1.91377 -2.09001 -7.82634
2 5.79542 -2.11936 -7.7787
2 -5.84046 1.89398 -7.9678
2 -2.01082 1.89009 -7.93831
2 1.83717 1.99871 -7.99871
2 5.7002 1.96713 -8.02959
2 -5.7404 5.89606 -8.08102
2 -2.08187 5.92355 -7.88687
2 1.8161 5.95487 -7.98294
2 5.72304 5.87895 -7.77496
2 -1.93183 -9.92941 -3.60793
2 1.86077 -9.85445 -3.57287
2 -5.86516 -5.8984 -3.92976
2 -1.94219 -5.97233 -3.86431
2 1.90521 -5.86881 -3.73822
2 5.69723 -5.94286 -3.81162
2 -9.70184 -1.97887 -4.0008
2 -5.8646 -1.9405 -4.0249
2 -1.93403 -1.95291 -3.92873
2 1.89412 -1.89301 -3.98598
2 5.7595 -1.97778 -3.97671
2 9.81489 -1.91073 -4.01346
2 -9.80598 2.06166 -3.99152
2 -5.8699 2.01512 -4.07374
2 -1.99063 1.98209 -4.08029
2 1.8873 1.99629 -4.04438
2 5.75607 1.97119 -4.06197
2 9.68994 1.98759 -3.97773
2 -5.83438 5.99313 -3.93718
2 -1.95887 5.87872 -3.95809
2 1.80324 5.81973 -3.96263
2 5.79151 5.85479 -3.98018
2 -1.87513 9.77845 -3.98763
2 1.77029 9.72577 -3.97563
2 -5.71074 -9.76813 0.221684
2 -2.00742 -9.46493 0.269042
2 1.8924 -9.74768 0.363643
2 5.90403 -9.7498 0.0978206
2 -9.62269 -5.94466 -0.107845
2 -5.86661 -5.80851 -0.149949
2 -1.97213 -5.79547 -0.00139152
2 1.88997 -5.83144 0.0331515
2 5.7897 -5.81871 0.0707269
2 9.59135 -5.81265 -0.131164
2 -9.73514 -1.99982 -0.227555
2 -5.89636 -1.85868 -0.191887
2 -1.98007 -1.90302 -0.0662391
2 1.88698 -1.88679 -0.0164614
2 5.7787 -1.91615 -0.0978326
2 9.72703 -1.97074 -0.0951365
2 -9.84976 1.99625 -0.15458
2 -5.90632 2.06078 -0.143535
2 -1.99316 2.01035 -0.132312
2 1.88938 1.88952 -0.125458
2 5.74668 1.92097 -0.123097
2 9.65787 1.91263 -0.203862
2 -9.85865 6.20518 -0.139017
2 -5.89127 5.91454 -0.151582
2 -1.94324 5.8752 -0.0491178
2 1.92437 5.88653 -0.0470679
2 5.69248 5.84137 -0.130868
2 9.64088 5.83554 -0.0537851
2 -5.57819 10.1725 -0.0170286
2 -1.86419 9.78676 -0.116701
2 1.81743 9.74833 -0.110508
2 5.69514 9.89869 -0.0721157
2 -2.07821 -9.5243 4.29922
2 1.88696 -9.54492 4.30214
2 -5.82892 -5.61629 3.89033
2 -1.96269 -5.67292 3.94303
2 1.87485 -5.81638 3.94792
2 5.89023 -5.73944 3.93909
2 -9.65353 -1.86903 3.62659
2 -5.86531 -1.91485 3.6844
2 -2.03328 -1.87732 3.74879
2 1.9039 -1.93491 3.85004
2 5.81641 -1.98641 3.88268
2 9.7029 -1.85418 3.827
2 -9.82431 2.06307 3.54525
2 -5.84685 1.97395 3.7322
2 -1.95311 1.87921 3.73277
2 1.87382 1.9624 3.77925
2 5.80482 1.90772 3.86664
2 9.57227 1.92235 3.75147
2 -5.88979 5.9099 3.68383
2 -1.94101 5.98077 3.86336
2 1.9077 5.80299 3.81917
2 5.76022 5.87851 3.71959
2 -1.86522 9.75621 3.74371
2 1.86794 9.98662 3.68806
2 -5.83265 -5.51647 8.00666
2 -2.10708 -5.59362 7.91466
2 1.89234 -5.51472 7.91755
2 6.03168 -5.8494 7.75385
2 -5.90336 -1.73913 7.60412
2 -2.0315 -1.83691 7.77721
2 1.82781 -1.91511 7.79244
2 5.86955 -1.86902 7.86295
2 -5.77317 2.04927 7.56886
2 -1.97947 2.0669 7.74964
2 1.95313 1.99056 7.7092
2 5.80412 1.94858 7.69162
2 -5.9437 5.88626 7.60334
2 -1.92882 5.92215 7.68627
2 1.91034 5.91956 7.59667
2 5.7462 5.89143 7.54438
2 -5.72071 -7.83097 -5.74535
2 -1.96834 -8.08928 -5.74308
2 1.90456 -7.93017 -5.58876
2 5.71519 -7.98183 -5.59231
2 -5.80005 -7.8917 -1.93668
2 -1.95471 -7.76871 -1.8319
2 1.9317 -7.89195 -1.7144
2 5.72401 -7.86523 -1.86198
2 -5.92748 -7.70409 2.03399
2 -2.09884 -7.59322 2.08865
2 1.86501 -7.75956 2.13683
2 5.86484 -7.74408 2.04608
2 -6.05347 -7.42707 5.98034
2 -2.03296 -7.57788 6.05869
2 2.01114 -7.52616 6.18709
2 5.91139 -7.72499 5.85468
2 -1.89291 -4.22516 -9.82738
2 1.93139 -4.13762 -9.77113
2 -5.78286 -3.94792 -5.86963
2 -1.87182 -4.05532 -5.87418
2 1.89727 -3.9711 -5.86742
2 5.77796 -3.98152 -5.82518
2 -9.81406 -4.01107 -2.16974
2 -5.95447 -3.90257 -2.09544
2 -1.98141 -3.88436 -1.9708
2 1.8762 -3.81838 -1.90945
2 5.73825 -3.89573 -2.02461
2 9.64819 -3.79903 -2.04582
2 -9.63519 -3.83731 1.79435
2 -5.88034 -3.78282 1.71297
2 -2.05381 -3.77661 1.77608
2 1.9035 -3.86541 1.92075
2 5.81484 -3.81757 1.8811
2 9.67679 -3.86777 1.92448
2 -5.85366 -3.68956 5.76411
2 -1.978 -3.72281 5.84416
2 1.87182 -3.81207 5.83579
2 5.90764 -3.81691 5.88619
2 -2.04244 -3.70461 9.86998
2 1.75468 -3.57783 9.86227
2 -5.93537 -0.233396 -9.72257
2 -2.01545 -0.119758 -9.8592
2 1.83068 -0.100043 -9.89434
2 5.6557 -0.0828898 -9.75651
2 -9.84396 -0.036502 -5.71966
2 -5.75397 -0.0559253 -5.98016
2 -1.94008 0.029501 -5.97028
2 1.85923 0.0168082 -5.97889
2 5.73586 0.0230899 -5.99807
2 9.65637 -0.000841465 -5.93584
2 -9.5602 -0.0902969 -2.1156
2 -5.91979 0.0955255 -2.16306
2 -2.00221 0.0277129 -2.05928
2 1.89121 0.0431331 -2.08366
2 5.80572 -0.00235368 -2.09544
2 9.52191 0.0089584 -2.02394
2 -9.91284 -0.00162911 1.63729
2 -5.80779 0.0856895 1.75514
2 -1.98904 -0.00182041 1.77993
2 1.93658 -0.00389185 1.88523
2 5.75176 -0.0476233 1.9166
2 9.69771 0.00378286 1.78066
2 -9.83501 0.138189 5.45226
2 -5.92473 0.0619903 5.63408
2 -2.0163 0.0544625 5.78197
2 1.89196 -0.0296388 5.75332
2 5.84838 -0.0225053 5.82133
2 9.6067 -0.00339142 5.81037
2 -2.03663 0.121731 9.77281
2 1.89921 0.0845414 9.63219
2 5.80727 0.184443 9.751
2 -2.09645 3.76862 -9.82108
2 1.7919 3.9374 -9.93218
2 -5.80818 3.92305 -6.01494
2 -2.01084 3.94296 -6.02741
2 1.89798 3.96916 -6.00631
2 5.72726 3.92248 -5.96317
2 -9.88403 4.03243 -2.04904
2 -5.85242 3.99447 -2.11855
2 -1.98581 3.93463 -2.02064
2 1.96389 3.96735 -2.01539
2 5.78234 3.85059 -2.08635
2 9.6287 4.00341 -2.08583
2 -9.8452 4.10373 1.74372
2 -5.8816 3.94945 1.82729
2 -1.93435 3.96338 1.88894
2 1.85945 3.87837 1.81131
2 5.79818 3.93887 1.8382
2 9.63614 3.87779 1.84752
2 -5.86472 3.9401 5.62647
2 -1.96035 3.9811 5.74039
2 1.94275 3.88476 5.7079
2 5.78734 3.84292 5.68747
2 -1.99057 4.05312 9.74137
2 1.8984 4.04669 9.58982
2 -5.69179 7.83341 -5.92902
2 -1.98889 7.87887 -6.01826
2 1.84192 7.80777 -5.90283
2 5.68104 7.84878 -5.79886
2 -5.84147 7.94836 -1.93863
2 -1.95305 7.87575 -2.04702
2 1.85739 7.83532 -2.02624
2 5.63786 7.8259 -2.04438
2 -5.76047 7.90908 1.73918
2 -1.89961 7.84658 1.8515
2 1.94987 7.89805 1.85405
2 5.82878 7.88767 1.732
2 -5.89816 7.87849 5.63824
2 -1.92142 7.89187 5.79846
2 2.004 7.87727 5.62021
2 5.82969 7.78364 5.5915
2 -7.68387 -5.94908 -5.99689
2 -7.85588 -2.12428 -6.04382
2 -7.79026 1.93963 -5.99512
2 -7.59946 5.84936 -6.01443
2 -7.83102 -5.92579 -2.06851
2 -7.81564 -1.98556 -2.06905
2 -7.84212 1.99556 -2.10634
2 -7.91203 5.98793 -2.04253
2 -7.68291 -5.72358 1.78488
2 -7.7743 -1.87657 1.68945
2 -7.8966 2.01072 1.7713
2 -7.79049 5.95437 1.76375
2 -7.90146 -5.3397 5.91804
2 -7.85048 -1.79503 5.64393
2 -7.81713 2.01427 5.558
2 -7.77475 5.96008 5.67766
2 -3.81708 -2.07937 -9.79893
2 -3.97425 1.72944 -9.88365
2 -3.80655 -5.87913 -5.74459
2 -3.78231 -2.10097 -5.93236
2 -3.96761 1.98135 -6.03853
2 -3.91335 5.89779 -5.95677
2 -3.82877 -9.78665 -1.76133
2 -3.92898 -5.86427 -1.96405
2 -3.96019 -1.90913 -2.02633
2 -3.90196 2.03368 -2.11092
2 -3.929 5.92518 -2.01132
2 -3.76314 9.90394 -2.02525
2 -3.8952 -9.58546 2.2308
2 -3.95108 -5.68783 1.90416
2 -3.9748 -1.87868 1.72855
2 -3.91631 2.02623 1.79932
2 -3.91827 5.93346 1.83747
2 -3.70587 9.8257 1.83613
2 -3.96037 -5.67594 5.8935
2 -3.95967 -1.83214 5.75462
2 -3.91628 1.98158 5.67866
2 -4.00785 5.95311 5.68079
2 -4.06742 -1.73535 9.64123
2 -3.91392 2.02887 9.64855
2 0.0273971 -6.22678 -9.58105
2 0.00890286 -2.15836 -9.88632
2 -0.132463 1.87782 -9.88378
2 -0.263606 5.86238 -9.73141
2 0.00163396 -9.99775 -5.59763
2 -0.0192904 -5.98642 -5.7907
2 -0.0555718 -1.99386 -5.93011
2 -0.0455308 2.02439 -6.00563
2 -0.100326 5.846 -6.02614
2 -0.0168951 9.92311 -6.02212
2 -0.0738822 -9.73004 -1.64962
2 -0.00394087 -5.82822 -1.88663
2 -0.0591358 -1.92008 -1.99118
2 -0.0237228 1.95073 -2.01233
2 -0.0333775 5.87492 -1.99807
2 -0.0738854 9.81972 -1.99261
2 -0.165142 -9.6162 2.29373
2 -0.0823271 -5.77539 2.0046
2 -0.0570583 -1.89393 1.90061
2 -0.0139469 1.99456 1.84445
2 -0.0160051 5.92489 1.8985
2 0.00895175 9.70654 1.81751
2 -0.0317963 -9.65866 6.32835
2 -0.112082 -5.63025 5.89703
2 -0.103921 -1.91517 5.80534
2 -0.0223304 1.99843 5.81574
2 -0.018563 5.90221 5.74926
2 0.0628056 9.79935 5.80325
2 -0.0677242 -5.50305 9.91537
2 -0.209464 -1.73482 9.70189
2 -0.0492187 2.08052 9.63477
2 -0.0545501 5.95432 9.57851
2 3.85468 -2.10721 -9.72113
2 3.71765 1.94306 -10.1256
2 3.8255 -5.92352 -5.6808
2 3.81923 -1.97479 -5.87139
2 3.81875 1.97547 -5.98269
2 3.7773 5.90611 -5.94328
2 3.82063 -9.90887 -1.66426
2 3.81968 -5.84725 -1.86343
2 3.8171 -1.97223 -2.04847
2 3.80075 1.92408 -2.0535
2 3.85272 5.84417 -2.01295
2 3.73299 9.79125 -2.04171
2 3.88978 -9.57979 2.20166
2 3.86835 -5.80681 1.97337
2 3.85264 -1.9667 1.90319
2 3.86934 1.95352 1.87961
2 3.85392 5.84066 1.88877
2 3.88791 10.0249 1.86178
2 3.97348 -5.72446 6.03105
2 3.81572 -1.94784 5.85231
2 3.84518 1.88945 5.7197
2 3.8193 5.86134 5.63351
2 3.85446 -1.72299 9.8397
2 3.92374 2.09495 9.74979
2 7.6586 -5.92123 -5.67053
2 7.80479 -1.97958 -5.95375
2 7.68485 1.92599 -6.0017
2 7.6404 5.84202 -5.95836
2 7.6692 -5.74068 -1.88789
2 7.69768 -1.96539 -2.08096
2 7.68869 2.01375 -2.10188
2 7.61689 5.80162 -2.03929
2 7.84702 -5.84457 1.95117
2 7.78735 -1.8641 1.88075
2 7.66838 1.91735 1.78722
2 7.73818 5.95686 1.77052
2 8.03051 -5.65977 5.708
2 7.78175 -1.89252 5.8065
2 7.75043 1.92509 5.80788
2 7.71136 5.79331 5.51504
1 -2.10184 -3.84234 -12.5574
1 0.288461 -2.53668 -12.9129
1 2.45288 -4.01748 -12.4356
1 -2.82987 -0.034935 -12.5157
1 -1.19988 1.09451 -13.6973
1 3.66405 -0.203386 -11.648
1 -2.3598 3.27539 -13.6621
1 0.51914 2.88544 -13.4988
1 3.07498 2.97332 -12.7205
1 0.116937 -10.4083 -8.36219
1 -7.088 -6.25326 -9.6377
1 6.9358 -7.17337 -9.90307
1 -8.95089 -0.524246 -9.94112
1 9.74129 -0.820583 -9.61524
1 -5.76934 5.68142 -11.2272
1 5.92749 8.05925 -9.3759
1 0.477907 9.99525 -9.64232
1 -5.58971 -9.83405 -8.12619
1 6.91193 -10.3096 -6.16554
1 -10.2674 -6.47135 -6.28301
1 10.0582 -6.67265 -6.53951
1 -9.49162 7.49632 -6.16755
1 9.46212 7.66593 -5.93808
1 -6.09743 10.4688 -6.03056
1 5.66975 10.7917 -5.83346
1 -3.7618 -12.6857 -1.99064
1 -0.091589 -11.6729 -3.24066
1 2.52951 -14.5258 -2.03841
1 -11.7801 -2.46243 -1.97813
1 12.6716 -3.22481 -2.67814
1 -11.4777 -0.229653 -3.1844
1 11.5196 -0.023525 -3.4086
1 -12.646 2.90171 -3.57553
1 12.3141 3.38925 -2.44992
1 -3.04252 13.5235 -3.08527
1 -0.801191 13.764 -3.44909
1 3.31018 13.3226 -2.52165
1 -3.53248 -13.5063 0.39715
1 -1.08772 -13.7259 0.550473
1 2.84816 -12.8157 -0.517497
1 -9.05203 -9.97204 -0.838339
1 8.87303 -9.96259 0.016966
1 -13.2815 -2.10611 0.0744
1 13.3225 -2.6444 -0.685167
1 -14.1866 0.168092 -0.190539
1 14.354 0.50253 -0.338745
1 -12.3404 2.27422 -1.1832
1 12.8629 2.29627 -0.386977
1 -10.2637 9.24275 -0.404685
1 8.42399 10.2282 0.0171181
1 -2.95423 14.1853 0.691146
1 -0.373558 14.2765 0.388773
1 2.79278 12.6463 -0.0321922
1 -3.86601 -13.2928 4.07824
1 -0.34412 -13.1243 2.74967
1 1.62976 -11.7187 3.00722
1 -11.5937 -2.19684 1.76114
1 13.2781 -3.24192 1.74483
1 -12.4488 1.39586 3.47245
1 11.3278 -1.88101 1.71126
1 -13.3568 3.54665 4.10369
1 11.9872 2.94018 1.84241
1 -3.47639 12.4439 2.31666
1 -0.183383 11.6484 3.17322
1 3.18802 12.4988 2.41394
1 -6.66358 -9.76694 7.11357
1 7.10072 -9.91972 6.11567
1 -9.5936 -7.33397 5.9315
1 10.5606 -6.54249 5.88878
1 -9.98046 6.72232 7.09857
1 9.31172 5.94212 7.50239
1 -6.62191 9.8299 7.13957
1 6.17498 9.63724 7.32421
1 -1.09578 -9.38826 9.09997
1 -6.2482 -6.35117 10.3546
1 7.83117 -6.29394 9.70772
1 -7.75919 0.313238 7.47082
1 9.6848 0.170932 9.42504
1 -6.48351 6.32588 10.0792
1 5.84035 6.20737 10.4874
1 0.290311 10.031 9.18635
1 -3.25557 -2.35425 13.5122
1 0.815633 -2.85173 12.7321
1 3.12946 -3.27217 12.1804
1 -4.35693 -0.0113957 11.2434
1 0.746593 -1.00679 14.2613
1 3.69636 0.428699 11.9793
1 -1.54748 2.15466 12.3692
1 -0.805708 0.738181 14.2934
1 1.81031 2.05162 11.4083
1 -0.936567 -5.64337 -13.0981
1 1.42652 -6.05738 -13.132
1 -3.6937 -2.14506 -12.4795
1 -1.68339 -1.68113 -13.5784
1 2.10803 -1.86425 -11.7376
1 4.28626 -2.37741 -12.425
1 -4.11744 1.88676 -12.4924
1 -1.90245 2.03775 -11.6602
1 1.57696 1.37209 -12.0267
1 4.80949 1.38297 -12.6182
1 -0.846769 4.96483 -13.8007
1 1.53488 4.78996 -12.6849
1 -5.44693 -7.89168 -9.42574
1 -2.81951 -7.43248 -10.0521
1 2.3638 -7.67659 -9.45604
1 4.89705 -8.14039 -9.62835
1 -8.80195 -4.65448 -10.0273
1 8.34278 -5.25539 -9.86988
1 -7.71533 -2.49353 -10.4045
1 8.20384 -2.69338 -9.80024
1 -7.76079 1.68552 -9.78462
1 8.08006 1.52496 -9.69495
1 -7.70873 5.7346 -9.66854
1 7.58919 6.27072 -9.34324
1 -6.11913 7.62069 -9.86307
1 -2.10107 7.80211 -9.68865
1 2.05425 8.33077 -9.53477
1 4.15249 9.31359 -10.091
1 -4.12042 -9.72296 -5.63105
1 -2.46419 -11.2809 -5.74894
1 1.76564 -11.9568 -5.00055
1 3.64467 -9.80312 -5.41351
1 -8.9383 -8.30333 -6.39157
1 8.59426 -8.42702 -6.40614
1 -10.5066 -4.21656 -5.15262
1 9.68387 -3.99992 -6.05932
1 -10.6304 -2.48485 -6.53598
1 11.2784 -2.13801 -6.23379
1 -11.4733 1.3216 -7.10872
1 11.0102 2.20094 -6.25103
1 -9.88998 4.73716 -5.91991
1 9.5963 4.01048 -6.37538
1 -8.09197 9.4842 -6.33861
1 7.88945 9.55497 -6.08738
1 -3.76633 9.94124 -5.56661
1 -2.04823 11.3623 -6.34944
1 2.06986 11.9092 -5.46048
1 3.40102 9.98951 -5.92006
1 -5.86118 -11.5433 -2.4456
1 7.22615 -11.658 -4.04658
1 -11.9247 -4.78228 -3.43784
1 11.568 -5.22621 -2.85281
1 -11.4649 4.71818 -4.15497
1 11.564 5.52657 -2.78618
1 -4.97976 12.1393 -2.5342
1 4.0852 11.4991 -4.03654
1 -8.13332 -10.5584 1.12279
1 -3.20877 -11.3333 0.289652
1 5.07067 -12.151 -0.139741
1 7.42436 -11.7514 0.185076
1 -10.4676 -8.42699 -0.193615
1 10.2434 -8.21824 -0.229
1 -11.5579 -3.95613 -0.0820085
1 11.4079 -3.96979 0.0950059
1 -11.5983 4.14434 0.00585246
1 11.3662 3.97463 -0.145282
1 -11.6469 8.09768 1.01069
1 10.0372 8.62826 -0.461825
1 -8.34061 10.537 -0.311934
1 -2.94343 11.9099 0.0882966
1 4.96737 12.066 -1.36839
1 6.9767 11.9247 0.0718937
1 -4.66295 -11.2662 4.30798
1 4.04054 -11.4025 3.78282
1 -11.6836 -5.00689 2.02205
1 12.1341 -4.8086 3.01618
1 -11.3058 4.44674 3.83021
1 11.4867 5.55473 2.80323
1 -5.68334 11.475 2.44004
1 5.5448 11.8194 2.98343
1 -4.28176 -9.82583 6.10947
1 -0.983849 -12.8795 6.48926
1 1.09201 -12.1664 7.13351
1 4.65714 -10.4185 5.84035
1 -8.52786 -8.08742 7.73341
1 9.15531 -8.33369 6.25326
1 -9.77611 -3.88358 5.90108
1 10.7099 -4.31064 4.81365
1 -11.4515 -2.12845 5.56376
1 10.8821 -2.44184 6.06658
1 -9.96677 2.21022 7.1787
1 11.2021 1.89475 5.76153
1 -9.68731 4.0391 5.53158
1 9.63231 3.72725 6.13061
1 -8.20824 8.14921 7.15998
1 7.79062 7.80983 7.46525
1 -3.90687 9.68981 5.86887
1 -2.14698 11.359 5.9358
1 2.13116 11.4833 6.05146
1 4.14859 10.5064 6.81396
1 -4.82403 -8.25082 10.2975
1 -2.31195 -7.5708 9.64294
1 1.69771 -8.69589 9.09037
1 5.99612 -7.91429 9.51328
1 -7.43296 -4.35829 10.1499
1 9.4823 -4.66805 9.32708
1 -8.4179 -1.26118 9.02681
1 8.40054 -2.00861 9.77339
1 -7.4511 2.16861 9.82051
1 8.51563 2.2444 9.9276
1 -8.05882 4.46294 10.1223
1 7.50262 4.39622 10.4183
1 -4.68142 8.03509 10.2838
1 -2.50996 7.34396 9.99711
1 1.69409 7.88315 9.79923
1 4.01596 7.87773 10.3113
1 -1.91298 -1.84633 11.5925
1 1.47777 -4.94787 12.1361
1 -4.63745 -2.24778 11.7935
1 -1.13595 -2.14394 13.7807
1 2.61306 -1.24481 13.1121
1 4.75563 -1.692 12.3923
1 -3.76942 1.95039 12.3985
1 -2.49918 0.0776847 12.8581
1 1.81235 0.950308 13.6582
1 4.21159 2.6371 12.231
1 -0.0155748 5.11756 13.2957
1 0.579696 2.84933 13.4721
1 -2.16934 -12.6451 -3.78795
1 1.99576 -12.2854 -2.69266
1 -5.40159 -12.5033 -0.301416
1 -1.53744 -12.677 -1.52953
1 0.607646 -13.4095 -1.15238
1 4.34158 -13.0158 -2.28156
1 -4.65904 -12.0655 2.04012
1 -2.543 -13.8441 2.30869
1 1.34207 -13.2288 1.14768
1 3.42409 -12.0994 1.53075
1 -1.58625 -13.6545 4.46281
1 0.892356 -13.1235 5.04711
1 -3.85629 -9.61684 -9.64123
1 -1.7839 -9.19971 -8.55691
1 2.16062 -9.90342 -7.33437
1 4.95026 -9.98521 -7.41881
1 -7.3619 -9.98644 -6.85527
1 8.71976 -10.0589 -4.76843
1 -7.54087 -9.82246 -2.66952
1 7.78554 -9.90781 -2.22856
1 -8.1211 -9.43764 3.19164
1 7.57895 -9.94477 1.93442
1 -8.22622 -9.01479 5.58722
1 8.53356 -10.0897 4.16557
1 -4.94032 -10.0337 8.54693
1 -2.5207 -10.0468 7.37427
1 2.92635 -9.55917 7.24538
1 5.45077 -9.39994 7.77916
1 -4.33651 -5.74379 -9.93045
1 -1.0075 -7.45119 -11.6568
1 1.21881 -7.73203 -11.4406
1 4.1241 -5.98898 -9.63097
1 -8.98701 -6.35114 -8.19486
1 8.34819 -6.94575 -8.14777
1 -9.83334 -6.13471 -3.91953
1 9.70088 -5.68368 -4.20574
1 -11.221 -6.83955 -1.98914
1 11.8805 -6.65061 -0.929467
1 -11.8102 -6.6959 0.375442
1 11.4778 -6.88445 1.45201
1 -9.79535 -5.76592 3.76285
1 10.4102 -6.268 3.60332
1 -8.12824 -6.48447 9.16919
1 9.31764 -6.56042 7.88231
1 -3.84638 -6.00962 9.98464
1 -1.9147 -6.06013 11.4203
1 1.92647 -6.82116 10.5732
1 5.68838 -5.7741 10.4298
1 -4.26057 -4.07944 -11.5495
1 4.41271 -4.29545 -11.1768
1 -12.1313 -2.75162 -4.47798
1 11.3627 -3.83336 -4.5317
1 -11.2766 -3.83909 3.94964
1 12.3442 -2.67462 4.13658
1 -5.24772 -3.80436 13.1352
1 5.16448 -3.65355 11.1406
1 -7.363 -0.6561 -11.799
1 -5.00536 -0.322147 -12.0879
1 5.85149 -0.630238 -12.1713
1 7.88318 -0.616496 -10.6789
1 -10.6913 -0.688072 -8.09054
1 11.3152 -0.704705 -8.02741
1 -12.2308 -0.845862 -6.21938
1 12.1576 0.102295 -5.89804
1 -12.431 0.107736 5.52868
1 11.9717 -0.589278 5.26187
1 -10.9293 -0.0453834 7.62214
1 11.3758 0.101907 7.58319
1 -6.10886 0.13161 9.439
1 5.92942 0.449541 12.2823
1 7.86223 0.162788 10.9519
1 -4.36167 4.01703 -11.4023
1 5.4625 3.32979 -11.6743
1 -11.5357 3.20996 -5.7552
1 11.3541 4.0524 -4.65475
1 -11.6746 2.51922 5.60609
1 11.3643 3.4506 4.02134
1 -4.16684 3.9136 11.3649
1 4.13212 4.79511 11.4236
1 -3.59739 6.02626 -10.2106
1 -0.250167 6.34723 -12.1613
1 1.95696 6.36866 -11.0665
1 3.80717 6.39236 -9.73178
1 -7.91887 7.82769 -7.98784
1 7.95342 7.89905 -7.89729
1 -9.61701 6.26423 -4.15159
1 9.73934 5.80141 -4.37284
1 -11.3335 6.26516 -2.48732
1 11.6386 6.93278 -1.04592
1 -11.3978 6.22673 2.05389
1 11.174 7.61821 1.40653
1 -9.57318 5.97905 3.70297
1 10.0964 5.45117 4.53696
1 -8.32849 6.29422 8.62752
1 7.98793 6.40905 9.38992
1 -4.15777 5.65713 9.60952
1 -0.999173 6.76356 11.8045
1 2.46072 6.3592 11.249
1 3.67058 5.87343 9.20641
1 -4.3022 10.7389 -7.71804
1 -2.22048 9.72522 -8.02633
1 1.84575 10.4686 -7.70061
1 4.24329 10.5363 -7.969
1 -7.7967 10.59 -4.32956
1 7.63507 10.5194 -4.08122
1 -9.03005 10.019 -2.37745
1 8.65305 9.36438 -2.15514
1 -7.33958 9.96808 1.94862
1 8.79495 8.76323 1.7409
1 -7.97729 9.60311 5.32685
1 7.73136 9.49326 5.67362
1 -4.97928 9.98337 8.74954
1 -2.13904 9.78129 7.57634
1 2.1074 9.61734 7.66783
1 4.60265 9.79409 8.96809
1 -1.68312 11.8913 -1.99901
1 1.45198 13.3451 -3.87715
1 -4.07092 13.7983 -1.15683
1 -1.66235 14.0654 -1.32973
1 0.843763 13.8159 -1.58442
1 1.98341 11.5209 -1.98558
1 -5.06105 12.9584 0.736332
1 -1.35735 13.5962 2.26899
1 1.07026 13.4045 1.97612
1 5.00291 12.6113 0.918062
1 -2.13354 12.6401 4.12171
1 1.76484 12.6297 4.13229
1 -13.4239 -0.78255 -4.23568
1 -12.356 1.17964 -4.93318
1 -12.9203 -5.20556 -1.51232
1 -13.8396 -1.32206 -2.00521
1 -13.4672 0.996769 -2.55837
1 -12.7588 4.5979 -1.96064
1 -13.5802 -5.14528 0.584413
1 -12.8565 -0.220463 1.63911
1 -11.9765 2.01479 1.2767
1 -12.7054 4.2189 1.98149
1 -11.9701 -0.928681 3.62718
1 -13.8839 1.84807 5.48627
1 -9.67321 -4.37927 -7.28519
1 -9.31156 -2.49482 -8.5713
1 -9.56423 1.69542 -8.43478
1 -9.40355 5.84837 -7.9314
1 -10.5643 -8.195 -4.58889
1 -9.71239 9.30143 -4.59968
1 -9.56099 -8.41062 -2.32983
1 -9.75263 7.89813 -2.41566
1 -9.7038 -7.59852 1.95552
1 -9.59871 7.99486 2.15831
1 -10.0256 -8.43004 4.12168
1 -9.83324 8.15354 5.21091
1 -9.58513 -5.59519 7.76651
1 -9.80867 -1.93114 7.25076
1 -9.36527 0.97184 9.18434
1 -9.94557 4.63166 7.83521
1 -5.89412 -4.05376 -9.9386
1 -5.7964 -2.40297 -11.6232
1 -6.20899 1.70105 -11.5637
1 -6.12874 3.63482 -9.91141
1 -7.20788 -7.9529 -7.87346
1 -6.23541 9.40484 -8.09804
1 -5.89869 -9.85258 -4.18829
1 -5.46471 10.1521 -3.91329
1 -7.38895 -11.3771 -0.811461
1 -6.74125 10.6664 -2.19712
1 -6.43709 -10.8661 2.64271
1 -7.19638 12.1195 0.965997
1 -5.94743 -9.41022 4.51525
1 -5.90199 9.7842 4.08067
1 -6.61315 -8.42704 9.00499
1 -6.44731 8.21633 8.74542
1 -5.0871 -4.08658 10.4333
1 -6.61168 -2.18333 10.1513
1 -5.90455 1.72636 11.4395
1 -5.7246 3.85903 9.68297
1 -2.79565 -5.87874 -11.6688
1 -2.45053 5.19813 -12.0858
1 -4.16664 -11.4854 -3.96014
1 -3.3826 11.8185 -4.39756
1 -2.90776 -11.7739 5.78465
1 -4.02557 11.1599 4.11307
1 -3.29512 -4.3111 12.0384
1 -1.97364 4.59145 12.4583
1 -0.0706778 -8.8373 -9.964
1 0.194216 -4.36848 -11.4882
1 -0.454024 3.88393 -11.5775
1 0.332367 8.173 -10.97
1 1.10895 -12.0474 -7.16793
1 -0.436645 11.2389 -8.10002
1 -0.568933 -12.5147 -5.55308
1 -0.154935 11.6581 -4.16227
1 -0.426621 -11.4613 4.41447
1 -0.0772522 12.4378 5.44996
1 -0.760517 -11.4298 8.23192
1 0.0244071 11.6843 7.58589
1 -0.170322 -7.82367 10.55
1 -0.889092 -4.27319 12.3022
1 0.0266752 3.9085 11.3452
1 -0.544834 8.35965 10.4177
1 2.99863 -6.27892 -11.5405
1 3.71463 4.78077 -11.3279
1 3.83353 -11.4366 -3.80639
1 3.52703 13.631 -4.83078
1 2.74832 -11.8172 5.56981
1 3.94669 11.6235 4.66184
1 3.5682 -5.2005 10.7289
1 2.26508 4.19114 12.572
1 6.07378 -4.41347 -9.65438
1 6.23004 -2.67152 -11.0971
1 6.89693 1.3446 -11.5761
1 5.53299 4.43075 -9.761
1 6.77107 -8.66275 -8.07201
1 6.42899 9.80645 -7.82695
1 5.73318 -9.94276 -3.80361
1 5.49079 9.58331 -3.81346
1 6.24998 -11.756 -2.06607
1 6.73936 10.7193 -2.01801
1 5.59885 -11.5302 2.00841
1 7.14772 10.2138 2.72432
1 6.09513 -10.1364 3.91482
1 5.6918 10.0789 4.69813
1 7.57507 -8.49016 7.93261
1 6.25438 8.21292 9.23401
1 7.31559 -4.05081 10.2429
1 6.59237 -1.89669 11.1081
1 6.40396 2.58841 11.124
1 5.4678 4.06403 9.48494
1 10.1145 -5.05924 -8.17684
1 9.85039 -2.5911 -8.07955
1 9.33813 2.05223 -7.89967
1 9.45242 5.98085 -7.75535
1 10.0471 -8.11989 -4.54848
1 9.5479 9.28838 -4.3044
1 9.99041 -7.03947 -2.31251
1 9.90729 7.33905 -2.55631
1 9.61775 -8.25553 2.08091
1 9.87562 7.34668 3.22074
1 10.2765 -8.45779 4.26548
1 9.39205 7.56317 5.70044
1 10.3669 -4.48617 7.13615
1 9.79728 -1.85158 7.98515
1 9.83098 1.97074 7.7812
1 9.53685 4.08082 9.02559
1 12.5946 -1.7103 -4.50979
1 12.3451 1.9887 -4.33161
1 13.2734 -4.84341 -1.19705
1 13.3102 -0.981579 -2.41172
1 13.2291 1.21175 -2.33376
1 13.2049 5.15342 -1.19057
1 13.1247 -5.52659 0.918791
1 13.759 -1.14639 0.963759
1 13.2307 0.99154 1.68638
1 12.5053 5.84571 0.80801
1 12.886 -0.678831 3.06431
1 12.0413 1.32837 3.62696
