LAMMPS DATA FOR MEAM SIMULATION

   2678   atoms
      3   atom types

  -31.43   31.43   xlo xhi
  -31.43   31.43   ylo yhi
  -31.43   31.43   zlo zhi

 Atoms

     1   2     0.00000    -0.00000     0.00000
     2   2     2.75000    -0.00000     0.00000
     3   2     1.37500     2.38157     0.00000
     4   1    -1.37500     2.38157     0.00000
     5   3    -2.75000    -0.00000     0.00000
     6   2    -1.37500    -2.38157     0.00000
     7   2     1.37500    -2.38157     0.00000
     8   2     1.37500    -0.79386     2.24537
     9   2     0.00000     1.58771     2.24537
    10   2     0.00000    -1.58771    -2.24537
    11   2    -1.37500     0.79386    -2.24537
    12   2     5.50000    -0.00000     0.00000
    13   2     2.75000     4.76314     0.00000
    14   2    -2.75000     4.76314     0.00000
    15   2    -5.50000    -0.00000     0.00000
    16   2    -2.75000    -4.76314     0.00000
    17   2     2.75000    -4.76314     0.00000
    18   2     2.75000    -1.58771     4.49073
    19   1     0.00000     3.17543     4.49073
    20   2    -2.75000    -1.58771     4.49073
    21   1     0.00000    -3.17543    -4.49073
    22   2     2.75000     1.58771    -4.49073
    23   2    -2.75000     1.58771    -4.49073
    24   2     4.12500     2.38157     0.00000
    25   1     4.12500    -0.79386     2.24537
    26   3     4.12500     0.79386    -2.24537
    27   2     0.00000     4.76314     0.00000
    28   2     2.75000     3.17543    -2.24537
    29   2    -4.12500     2.38157     0.00000
    30   2    -1.37500     3.96928     2.24537
    31   2    -2.75000     3.17543    -2.24537
    32   1    -4.12500    -2.38157     0.00000
    33   2    -4.12500    -0.79386     2.24537
    34   2    -4.12500     0.79386    -2.24537
    35   2     0.00000    -4.76314     0.00000
    36   2    -2.75000    -3.17543     2.24537
    37   2    -1.37500    -3.96928    -2.24537
    38   2     4.12500    -2.38157     0.00000
    39   2     2.75000    -3.17543     2.24537
    40   2     1.37500    -3.96928    -2.24537
    41   2     1.37500     0.79386     4.49073
    42   2     0.00000    -1.58771     4.49073
    43   1    -1.37500     0.79386     4.49073
    44   2     1.37500    -0.79386    -4.49073
    45   2    -1.37500    -0.79386    -4.49073
    46   2     0.00000     1.58771    -4.49073
    47   2     0.00000     3.17543    -2.24537
    48   2    -2.75000     1.58771     2.24537
    49   2    -2.75000    -1.58771    -2.24537
    50   2     0.00000    -3.17543     2.24537
    51   2     2.75000    -1.58771    -2.24537
    52   2     4.12500     7.14471     0.00000
    53   2    -4.12500     7.14471     0.00000
    54   2    -8.25000    -0.00000     0.00000
    55   2     4.12500    -2.38157     6.73610
    56   1     0.00000     4.76314     6.73610
    57   2    -4.12500    -2.38157     6.73610
    58   3     0.00000    -4.76314    -6.73610
    59   2     4.12500     2.38157    -6.73610
    60   2    -4.12500     2.38157    -6.73610
    61   3     6.87500     2.38157     0.00000
    62   2     6.87500    -0.79386     2.24537
    63   2     6.87500     0.79386    -2.24537
    64   2     4.12500     5.55700    -2.24537
    65   2    -5.50000     4.76314     0.00000
    66   2    -2.75000     6.35085     2.24537
    67   3    -4.12500     5.55700    -2.24537
    68   1    -6.87500    -2.38157     0.00000
    69   2    -6.87500    -0.79386     2.24537
    70   2    -6.87500     0.79386    -2.24537
    71   2    -1.37500    -7.14471     0.00000
    72   2    -4.12500    -5.55700     2.24537
    73   2    -2.75000    -6.35085    -2.24537
    74   1     5.50000    -4.76314     0.00000
    75   2     4.12500    -5.55700     2.24537
    76   2     2.75000    -6.35085    -2.24537
    77   2     2.75000    -0.00000     6.73610
    78   2     1.37500    -2.38157     6.73610
    79   2    -1.37500     2.38157     6.73610
    80   2    -1.37500    -2.38157    -6.73610
    81   2     1.37500     2.38157    -6.73610
    82   2     5.50000    -1.58771     4.49073
    83   2    -1.37500     7.14471     0.00000
    84   2     1.37500     5.55700     4.49073
    85   1     4.12500     3.96928    -4.49073
    86   2    -6.87500     2.38157     0.00000
    87   2    -1.37500     5.55700     4.49073
    88   1    -4.12500     3.96928    -4.49073
    89   2    -5.50000    -4.76314     0.00000
    90   2    -5.50000    -1.58771     4.49073
    91   2    -5.50000     1.58771    -4.49073
    92   2     1.37500    -7.14471     0.00000
    93   2    -4.12500    -3.96928     4.49073
    94   2    -1.37500    -5.55700    -4.49073
    95   2     6.87500    -2.38157     0.00000
    96   2     4.12500    -3.96928     4.49073
    97   2     1.37500    -5.55700    -4.49073
    98   2     1.37500     2.38157     6.73610
    99   2    -1.37500    -2.38157     6.73610
   100   2     2.75000    -0.00000    -6.73610
   101   2    -2.75000    -0.00000    -6.73610
   102   2    -1.37500     2.38157    -6.73610
   103   2     5.50000     3.17543    -2.24537
   104   2    -5.50000     3.17543    -2.24537
   105   2     0.00000    -6.35085    -2.24537
   106   2     5.50000    -3.17543     2.24537
   107   2     0.00000    -0.00000     6.73610
   108   2     0.00000    -0.00000    -6.73610
   109   2     5.50000     1.58771     2.24537
   110   2     1.37500     5.55700    -2.24537
   111   2    -4.12500     3.96928     2.24537
   112   2    -5.50000    -1.58771    -2.24537
   113   2    -1.37500    -5.55700     2.24537
   114   2     4.12500    -3.96928    -2.24537
   115   2     4.12500     0.79386     4.49073
   116   2     1.37500     3.96928    -4.49073
   117   2    -2.75000     3.17543     4.49073
   118   2    -4.12500    -0.79386    -4.49073
   119   2    -1.37500    -3.96928     4.49073
   120   2     2.75000    -3.17543    -4.49073
   121   2     4.12500     3.96928     2.24537
   122   2    -1.37500     5.55700    -2.24537
   123   1    -5.50000     1.58771     2.24537
   124   2    -4.12500    -3.96928    -2.24537
   125   3     1.37500    -5.55700     2.24537
   126   2     2.75000     3.17543     4.49073
   127   2    -1.37500     3.96928    -4.49073
   128   2    -4.12500     0.79386     4.49073
   129   1     1.37500    -3.96928     4.49073
   130   2     4.12500    -0.79386    -4.49073
   131   2    11.00000    -0.00000     0.00000
   132   2     5.50000     9.52628     0.00000
   133   2   -11.00000    -0.00000     0.00000
   134   2    -5.50000    -9.52628     0.00000
   135   2     5.50000    -3.17543     8.98146
   136   2     0.00000     6.35085     8.98146
   137   2     0.00000    -6.35085    -8.98146
   138   2     5.50000     3.17543    -8.98146
   139   2    -5.50000     3.17543    -8.98146
   140   2     9.62500     2.38157     0.00000
   141   2     9.62500    -0.79386     2.24537
   142   2     9.62500     0.79386    -2.24537
   143   2     2.75000     9.52628     0.00000
   144   2     4.12500     8.73242     2.24537
   145   2     5.50000     7.93857    -2.24537
   146   2    -6.87500     7.14471     0.00000
   147   2    -4.12500     8.73242     2.24537
   148   2    -5.50000     7.93857    -2.24537
   149   2    -9.62500    -2.38157     0.00000
   150   3    -9.62500    -0.79386     2.24537
   151   2    -9.62500     0.79386    -2.24537
   152   2    -2.75000    -9.52628     0.00000
   153   2    -5.50000    -7.93857     2.24537
   154   2    -4.12500    -8.73242    -2.24537
   155   3     6.87500    -7.14471     0.00000
   156   2     5.50000    -7.93857     2.24537
   157   2     4.12500    -8.73242    -2.24537
   158   1     4.12500    -0.79386     8.98146
   159   2     2.75000    -3.17543     8.98146
   160   2    -1.37500     3.96928     8.98146
   161   2     1.37500    -3.96928    -8.98146
   162   2    -1.37500    -3.96928    -8.98146
   163   2     2.75000     3.17543    -8.98146
   164   2     8.25000     4.76314     0.00000
   165   2     8.25000    -1.58771     4.49073
   166   2     8.25000     1.58771    -4.49073
   167   2     0.00000     9.52628     0.00000
   168   2     2.75000     7.93857     4.49073
   169   2     5.50000     6.35085    -4.49073
   170   2    -8.25000     4.76314     0.00000
   171   2    -8.25000    -4.76314     0.00000
   172   2    -8.25000    -1.58771     4.49073
   173   2    -8.25000     1.58771    -4.49073
   174   2     0.00000    -9.52628     0.00000
   175   1    -5.50000    -6.35085     4.49073
   176   2    -2.75000    -7.93857    -4.49073
   177   2     8.25000    -4.76314     0.00000
   178   2     2.75000    -7.93857    -4.49073
   179   2     2.75000     1.58771     8.98146
   180   2    -2.75000     1.58771     8.98146
   181   2     2.75000    -1.58771    -8.98146
   182   2    -2.75000    -1.58771    -8.98146
   183   2     0.00000     3.17543    -8.98146
   184   1     6.87500     7.14471     0.00000
   185   2     6.87500    -2.38157     6.73610
   186   2     6.87500     2.38157    -6.73610
   187   2    -2.75000     9.52628     0.00000
   188   2     1.37500     7.14471     6.73610
   189   2    -9.62500     2.38157     0.00000
   190   2    -1.37500     7.14471     6.73610
   191   2    -5.50000     4.76314    -6.73610
   192   2    -6.87500    -2.38157     6.73610
   193   2     2.75000    -9.52628     0.00000
   194   1    -5.50000    -4.76314     6.73610
   195   1     9.62500    -2.38157     0.00000
   196   1     5.50000    -4.76314     6.73610
   197   2     1.37500    -7.14471    -6.73610
   198   2     1.37500     3.96928     8.98146
   199   2    -2.75000    -3.17543     8.98146
   200   2    -4.12500    -0.79386     8.98146
   201   2     4.12500     0.79386    -8.98146
   202   2    -4.12500     0.79386    -8.98146
   203   2    -2.75000     3.17543    -8.98146
   204   2     8.25000     3.17543    -2.24537
   205   2     1.37500     8.73242     2.24537
   206   2    -8.25000    -3.17543     2.24537
   207   2    -1.37500    -8.73242    -2.24537
   208   2     6.87500    -5.55700     2.24537
   209   2     1.37500    -0.79386     8.98146
   210   2     0.00000    -1.58771    -8.98146
   211   2     6.87500     3.96928    -4.49073
   212   2     0.00000     7.93857     4.49073
   213   2    -6.87500     3.96928    -4.49073
   214   2    -6.87500    -3.96928     4.49073
   215   2     0.00000    -7.93857    -4.49073
   216   2     6.87500    -3.96928     4.49073
   217   3    -1.37500     0.79386    -8.98146
   218   2     8.25000     1.58771     2.24537
   219   2    -8.25000    -1.58771    -2.24537
   220   2    -2.75000    -7.93857     2.24537
   221   2     5.50000    -6.35085    -2.24537
   222   2     6.87500     0.79386     4.49073
   223   2     2.75000     6.35085    -4.49073
   224   2    -4.12500     5.55700     4.49073
   225   2    -6.87500    -0.79386    -4.49073
   226   2    -2.75000    -6.35085     4.49073
   227   2     4.12500    -5.55700    -4.49073
   228   2     5.50000    -0.00000     6.73610
   229   2    -2.75000     4.76314     6.73610
   230   1    -5.50000    -0.00000    -6.73610
   231   1    -2.75000    -4.76314     6.73610
   232   2     2.75000    -4.76314    -6.73610
   233   1     6.87500     5.55700    -2.24537
   234   2    -6.87500    -5.55700     2.24537
   235   2     1.37500    -8.73242    -2.24537
   236   2     8.25000    -3.17543     2.24537
   237   2     0.00000     1.58771     8.98146
   238   2     1.37500     0.79386    -8.98146
   239   2     6.87500     3.96928     2.24537
   240   2     0.00000     7.93857    -2.24537
   241   2    -6.87500     3.96928     2.24537
   242   3    -6.87500    -3.96928    -2.24537
   243   2     0.00000    -7.93857     2.24537
   244   2     6.87500    -3.96928    -2.24537
   245   2     5.50000     3.17543     4.49073
   246   2    -5.50000    -3.17543    -4.49073
   247   2     0.00000    -6.35085     4.49073
   248   2     5.50000    -3.17543    -4.49073
   249   1     4.12500     2.38157     6.73610
   250   2     0.00000     4.76314    -6.73610
   251   1    -4.12500     2.38157     6.73610
   252   2     0.00000    -4.76314     6.73610
   253   2     4.12500    -2.38157    -6.73610
   254   2    -8.25000     1.58771     2.24537
   255   2    -5.50000    -6.35085    -2.24537
   256   3     2.75000    -7.93857     2.24537
   257   2     4.12500     5.55700     4.49073
   258   2    -2.75000     6.35085    -4.49073
   259   2    -6.87500     0.79386     4.49073
   260   2    -4.12500    -5.55700    -4.49073
   261   2     6.87500    -0.79386    -4.49073
   262   2     2.75000     4.76314     6.73610
   263   2    -2.75000     4.76314    -6.73610
   264   2    -5.50000    -0.00000     6.73610
   265   2    -2.75000    -4.76314    -6.73610
   266   2     2.75000    -4.76314     6.73610
   267   2     5.50000    -0.00000    -6.73610
   268   2    13.75000    -0.00000     0.00000
   269   2     6.87500    11.90785     0.00000
   270   2    -6.87500    11.90785     0.00000
   271   3    -6.87500   -11.90785     0.00000
   272   2     6.87500   -11.90785     0.00000
   273   2     6.87500    -3.96928    11.22683
   274   2     0.00000     7.93857    11.22683
   275   2    -6.87500    -3.96928    11.22683
   276   2     0.00000    -7.93857   -11.22683
   277   2    -6.87500     3.96928   -11.22683
   278   3    12.37500     2.38157     0.00000
   279   2    12.37500    -0.79386     2.24537
   280   2     4.12500    11.90785     0.00000
   281   2     5.50000    11.11399     2.24537
   282   2     6.87500    10.32014    -2.24537
   283   2    -8.25000     9.52628     0.00000
   284   2    -5.50000    11.11399     2.24537
   285   2    -6.87500    10.32014    -2.24537
   286   2   -12.37500    -2.38157     0.00000
   287   2   -12.37500     0.79386    -2.24537
   288   2    -4.12500   -11.90785     0.00000
   289   1    -6.87500   -10.32014     2.24537
   290   2    -5.50000   -11.11399    -2.24537
   291   2     8.25000    -9.52628     0.00000
   292   2     6.87500   -10.32014     2.24537
   293   2     5.50000   -11.11399    -2.24537
   294   2     5.50000    -1.58771    11.22683
   295   3     4.12500    -3.96928    11.22683
   296   2    -1.37500     5.55700    11.22683
   297   2     1.37500    -5.55700   -11.22683
   298   2    -1.37500    -5.55700   -11.22683
   299   2     4.12500     3.96928   -11.22683
   300   2    11.00000    -1.58771     4.49073
   301   2    11.00000     1.58771    -4.49073
   302   2     1.37500    11.90785     0.00000
   303   2     4.12500    10.32014     4.49073
   304   3     6.87500     8.73242    -4.49073
   305   2    -9.62500     7.14471     0.00000
   306   2    -4.12500    10.32014     4.49073
   307   2    -6.87500     8.73242    -4.49073
   308   2   -11.00000    -4.76314     0.00000
   309   2   -11.00000    -1.58771     4.49073
   310   2   -11.00000     1.58771    -4.49073
   311   2    -1.37500   -11.90785     0.00000
   312   1    -6.87500    -8.73242     4.49073
   313   2    -4.12500   -10.32014    -4.49073
   314   3     9.62500    -7.14471     0.00000
   315   2     6.87500    -8.73242     4.49073
   316   2     4.12500   -10.32014    -4.49073
   317   2     4.12500     0.79386    11.22683
   318   2     1.37500    -3.96928    11.22683
   319   2    -2.75000     3.17543    11.22683
   320   2     2.75000    -3.17543   -11.22683
   321   2    -2.75000    -3.17543   -11.22683
   322   2     1.37500     3.96928   -11.22683
   323   2     9.62500    -2.38157     6.73610
   324   3     9.62500     2.38157    -6.73610
   325   2    -1.37500    11.90785     0.00000
   326   2     2.75000     9.52628     6.73610
   327   2     6.87500     7.14471    -6.73610
   328   2   -11.00000     4.76314     0.00000
   329   2    -2.75000     9.52628     6.73610
   330   2    -6.87500     7.14471    -6.73610
   331   3    -9.62500    -7.14471     0.00000
   332   1    -9.62500    -2.38157     6.73610
   333   2     1.37500   -11.90785     0.00000
   334   2    -6.87500    -7.14471     6.73610
   335   2    -2.75000    -9.52628    -6.73610
   336   2    11.00000    -4.76314     0.00000
   337   2     6.87500    -7.14471     6.73610
   338   2     2.75000    -9.52628    -6.73610
   339   3     2.75000     3.17543    11.22683
   340   2    -1.37500    -3.96928    11.22683
   341   2    -4.12500     0.79386    11.22683
   342   2     4.12500    -0.79386   -11.22683
   343   2    -4.12500    -0.79386   -11.22683
   344   2     8.25000     9.52628     0.00000
   345   2     8.25000    -3.17543     8.98146
   346   1     8.25000     3.17543    -8.98146
   347   2    -4.12500    11.90785     0.00000
   348   2     1.37500     8.73242     8.98146
   349   2     6.87500     5.55700    -8.98146
   350   2    -1.37500     8.73242     8.98146
   351   2    -6.87500     5.55700    -8.98146
   352   2    -8.25000    -9.52628     0.00000
   353   2    -8.25000     3.17543    -8.98146
   354   2     4.12500   -11.90785     0.00000
   355   2    -6.87500    -5.55700     8.98146
   356   2    -1.37500    -8.73242    -8.98146
   357   2    12.37500    -2.38157     0.00000
   358   2     6.87500    -5.55700     8.98146
   359   2     1.37500    -8.73242    -8.98146
   360   2     1.37500     5.55700    11.22683
   361   2    -5.50000    -1.58771    11.22683
   362   2     5.50000     1.58771   -11.22683
   363   1    -5.50000     1.58771   -11.22683
   364   2    -4.12500     3.96928   -11.22683
   365   2    11.00000     3.17543    -2.24537
   366   2     2.75000    11.11399     2.24537
   367   2    -8.25000     7.93857    -2.24537
   368   2   -11.00000    -3.17543     2.24537
   369   3    -2.75000   -11.11399    -2.24537
   370   3     2.75000    -1.58771    11.22683
   371   2     0.00000    -3.17543   -11.22683
   372   3     9.62500     3.96928    -4.49073
   373   2     1.37500    10.32014     4.49073
   374   3    -9.62500    -3.96928     4.49073
   375   2    -1.37500   -10.32014    -4.49073
   376   2     8.25000    -6.35085     4.49073
   377   3    -1.37500    -0.79386   -11.22683
   378   1     8.25000     4.76314    -6.73610
   379   2     0.00000     9.52628     6.73610
   380   2    -8.25000     4.76314    -6.73610
   381   2    -8.25000    -4.76314     6.73610
   382   2     0.00000    -9.52628    -6.73610
   383   2     8.25000    -4.76314     6.73610
   384   2    -2.75000    -1.58771    11.22683
   385   2    -2.75000     1.58771   -11.22683
   386   3    11.00000     1.58771     2.24537
   387   3     4.12500    10.32014    -2.24537
   388   2    -6.87500     8.73242     2.24537
   389   2   -11.00000    -1.58771    -2.24537
   390   2    -4.12500   -10.32014     2.24537
   391   2     6.87500    -8.73242    -2.24537
   392   1     9.62500     0.79386     4.49073
   393   2     4.12500     8.73242    -4.49073
   394   2    -5.50000     7.93857     4.49073
   395   2    -9.62500    -0.79386    -4.49073
   396   2    -4.12500    -8.73242     4.49073
   397   3     5.50000    -7.93857    -4.49073
   398   2     8.25000    -0.00000     6.73610
   399   2     4.12500     7.14471    -6.73610
   400   2    -8.25000    -0.00000    -6.73610
   401   2    -4.12500    -7.14471     6.73610
   402   3     4.12500    -7.14471    -6.73610
   403   2     6.87500    -0.79386     8.98146
   404   2     4.12500     5.55700    -8.98146
   405   2    -2.75000     6.35085     8.98146
   406   2    -6.87500     0.79386    -8.98146
   407   2    -4.12500    -5.55700     8.98146
   408   2     2.75000    -6.35085    -8.98146
   409   1     9.62500     5.55700    -2.24537
   410   2     0.00000    11.11399     2.24537
   411   2    -9.62500     5.55700    -2.24537
   412   1    -9.62500    -5.55700     2.24537
   413   2     0.00000   -11.11399    -2.24537
   414   2     9.62500    -5.55700     2.24537
   415   2     1.37500     0.79386    11.22683
   416   2     1.37500    -0.79386   -11.22683
   417   2     8.25000     6.35085    -4.49073
   418   1    -1.37500    10.32014     4.49073
   419   3    -9.62500     3.96928    -4.49073
   420   2    -8.25000    -6.35085     4.49073
   421   2     1.37500   -10.32014    -4.49073
   422   2     9.62500    -3.96928     4.49073
   423   1    -1.37500     0.79386    11.22683
   424   2     0.00000     1.58771   -11.22683
   425   2     9.62500     3.96928     2.24537
   426   2     1.37500    10.32014    -2.24537
   427   2    -8.25000     6.35085     2.24537
   428   3    -1.37500   -10.32014     2.24537
   429   2     8.25000    -6.35085    -2.24537
   430   2     8.25000     3.17543     4.49073
   431   2     1.37500     8.73242    -4.49073
   432   2    -6.87500     5.55700     4.49073
   433   2    -8.25000    -3.17543    -4.49073
   434   2    -1.37500    -8.73242     4.49073
   435   1     6.87500    -5.55700    -4.49073
   436   2     6.87500     2.38157     6.73610
   437   2     1.37500     7.14471    -6.73610
   438   2    -5.50000     4.76314     6.73610
   439   2    -6.87500    -2.38157    -6.73610
   440   2     5.50000    -4.76314    -6.73610
   441   2     5.50000     1.58771     8.98146
   442   2     1.37500     5.55700    -8.98146
   443   2    -5.50000    -1.58771    -8.98146
   444   2    -1.37500    -5.55700     8.98146
   445   2     8.25000     7.93857    -2.24537
   446   2    -2.75000    11.11399     2.24537
   447   2   -11.00000     3.17543    -2.24537
   448   2     2.75000   -11.11399    -2.24537
   449   2    11.00000    -3.17543     2.24537
   450   2     0.00000     3.17543    11.22683
   451   2     2.75000     1.58771   -11.22683
   452   2     8.25000     6.35085     2.24537
   453   2    -1.37500    10.32014    -2.24537
   454   2    -9.62500     3.96928     2.24537
   455   2    -8.25000    -6.35085    -2.24537
   456   2     1.37500   -10.32014     2.24537
   457   3     9.62500    -3.96928    -2.24537
   458   2     6.87500     5.55700     4.49073
   459   2    -1.37500     8.73242    -4.49073
   460   2    -8.25000     3.17543     4.49073
   461   2    -6.87500    -5.55700    -4.49073
   462   2     1.37500    -8.73242     4.49073
   463   2     8.25000    -3.17543    -4.49073
   464   2     5.50000     4.76314     6.73610
   465   2    -1.37500     7.14471    -6.73610
   466   2    -6.87500     2.38157     6.73610
   467   2    -5.50000    -4.76314    -6.73610
   468   2     6.87500    -2.38157    -6.73610
   469   2     4.12500     3.96928     8.98146
   470   1    -1.37500     5.55700    -8.98146
   471   2    -5.50000     1.58771     8.98146
   472   2    -4.12500    -3.96928    -8.98146
   473   2     5.50000    -1.58771    -8.98146
   474   2   -11.00000     1.58771     2.24537
   475   2    -6.87500    -8.73242    -2.24537
   476   2     4.12500   -10.32014     2.24537
   477   2    11.00000    -1.58771    -2.24537
   478   2     5.50000     7.93857     4.49073
   479   2    -4.12500     8.73242    -4.49073
   480   2    -9.62500     0.79386     4.49073
   481   2    -5.50000    -7.93857    -4.49073
   482   2     4.12500    -8.73242     4.49073
   483   2     9.62500    -0.79386    -4.49073
   484   3     4.12500     7.14471     6.73610
   485   2    -4.12500     7.14471    -6.73610
   486   2    -8.25000    -0.00000     6.73610
   487   2    -4.12500    -7.14471    -6.73610
   488   2     4.12500    -7.14471     6.73610
   489   2     8.25000    -0.00000    -6.73610
   490   2    -4.12500     5.55700    -8.98146
   491   2    -6.87500    -0.79386     8.98146
   492   2     4.12500    -5.55700     8.98146
   493   1     6.87500     0.79386    -8.98146
   494   3    16.50000    -0.00000     0.00000
   495   2     8.25000    14.28942     0.00000
   496   2    -8.25000    14.28942     0.00000
   497   2   -16.50000    -0.00000     0.00000
   498   2    -8.25000   -14.28942     0.00000
   499   2     8.25000   -14.28942     0.00000
   500   2     8.25000    -4.76314    13.47219
   501   2     0.00000     9.52628    13.47219
   502   1    -8.25000    -4.76314    13.47219
   503   1     0.00000    -9.52628   -13.47219
   504   2     8.25000     4.76314   -13.47219
   505   2    -8.25000     4.76314   -13.47219
   506   2    15.12500     2.38157     0.00000
   507   1    15.12500    -0.79386     2.24537
   508   2    15.12500     0.79386    -2.24537
   509   1     5.50000    14.28942     0.00000
   510   2     6.87500    13.49556     2.24537
   511   3     8.25000    12.70171    -2.24537
   512   2    -9.62500    11.90785     0.00000
   513   2    -6.87500    13.49556     2.24537
   514   2    -8.25000    12.70171    -2.24537
   515   2   -15.12500    -2.38157     0.00000
   516   2   -15.12500    -0.79386     2.24537
   517   3   -15.12500     0.79386    -2.24537
   518   2    -5.50000   -14.28942     0.00000
   519   2    -8.25000   -12.70171     2.24537
   520   1    -6.87500   -13.49556    -2.24537
   521   2     9.62500   -11.90785     0.00000
   522   2     8.25000   -12.70171     2.24537
   523   2     6.87500   -13.49556    -2.24537
   524   2     6.87500    -2.38157    13.47219
   525   2     5.50000    -4.76314    13.47219
   526   2    -1.37500     7.14471    13.47219
   527   2     1.37500    -7.14471   -13.47219
   528   2    -1.37500    -7.14471   -13.47219
   529   2     5.50000     4.76314   -13.47219
   530   2    13.75000     4.76314     0.00000
   531   2    13.75000     1.58771    -4.49073
   532   2     2.75000    14.28942     0.00000
   533   2     5.50000    12.70171     4.49073
   534   2     8.25000    11.11399    -4.49073
   535   2   -11.00000     9.52628     0.00000
   536   1    -5.50000    12.70171     4.49073
   537   2    -8.25000    11.11399    -4.49073
   538   2   -13.75000    -4.76314     0.00000
   539   2   -13.75000    -1.58771     4.49073
   540   2   -13.75000     1.58771    -4.49073
   541   2    -2.75000   -14.28942     0.00000
   542   2    -8.25000   -11.11399     4.49073
   543   1    -5.50000   -12.70171    -4.49073
   544   2    11.00000    -9.52628     0.00000
   545   2     8.25000   -11.11399     4.49073
   546   2     5.50000   -12.70171    -4.49073
   547   1     5.50000    -0.00000    13.47219
   548   2     2.75000    -4.76314    13.47219
   549   2    -2.75000     4.76314    13.47219
   550   2     2.75000    -4.76314   -13.47219
   551   2    -2.75000    -4.76314   -13.47219
   552   2     2.75000     4.76314   -13.47219
   553   2    12.37500    -2.38157     6.73610
   554   2    12.37500     2.38157    -6.73610
   555   2     0.00000    14.28942     0.00000
   556   2     4.12500    11.90785     6.73610
   557   2     8.25000     9.52628    -6.73610
   558   1   -12.37500     7.14471     0.00000
   559   2    -4.12500    11.90785     6.73610
   560   2    -8.25000     9.52628    -6.73610
   561   2   -12.37500    -7.14471     0.00000
   562   2   -12.37500    -2.38157     6.73610
   563   2   -12.37500     2.38157    -6.73610
   564   1     0.00000   -14.28942     0.00000
   565   2    -8.25000    -9.52628     6.73610
   566   1    12.37500    -7.14471     0.00000
   567   2     8.25000    -9.52628     6.73610
   568   2     4.12500   -11.90785    -6.73610
   569   2     4.12500     2.38157    13.47219
   570   2     0.00000    -4.76314    13.47219
   571   2    -4.12500     2.38157    13.47219
   572   2     4.12500    -2.38157   -13.47219
   573   2    -4.12500    -2.38157   -13.47219
   574   2     0.00000     4.76314   -13.47219
   575   2    11.00000     9.52628     0.00000
   576   2    11.00000    -3.17543     8.98146
   577   2    11.00000     3.17543    -8.98146
   578   2    -2.75000    14.28942     0.00000
   579   1     2.75000    11.11399     8.98146
   580   2     8.25000     7.93857    -8.98146
   581   1   -13.75000     4.76314     0.00000
   582   2    -2.75000    11.11399     8.98146
   583   3    -8.25000     7.93857    -8.98146
   584   3   -11.00000    -9.52628     0.00000
   585   2   -11.00000    -3.17543     8.98146
   586   2   -11.00000     3.17543    -8.98146
   587   3     2.75000   -14.28942     0.00000
   588   2    -8.25000    -7.93857     8.98146
   589   2    -2.75000   -11.11399    -8.98146
   590   1    13.75000    -4.76314     0.00000
   591   2     8.25000    -7.93857     8.98146
   592   2     2.75000   -11.11399    -8.98146
   593   3     2.75000     4.76314    13.47219
   594   1    -2.75000    -4.76314    13.47219
   595   2    -5.50000    -0.00000    13.47219
   596   2    -5.50000    -0.00000   -13.47219
   597   2    -2.75000     4.76314   -13.47219
   598   2     9.62500    11.90785     0.00000
   599   3     9.62500    -3.96928    11.22683
   600   2     9.62500     3.96928   -11.22683
   601   2    -5.50000    14.28942     0.00000
   602   1   -15.12500     2.38157     0.00000
   603   2    -1.37500    10.32014    11.22683
   604   1    -8.25000     6.35085   -11.22683
   605   2    -9.62500   -11.90785     0.00000
   606   2    -9.62500    -3.96928    11.22683
   607   1    -9.62500     3.96928   -11.22683
   608   2     5.50000   -14.28942     0.00000
   609   1    -8.25000    -6.35085    11.22683
   610   2    -1.37500   -10.32014   -11.22683
   611   2    15.12500    -2.38157     0.00000
   612   2     8.25000    -6.35085    11.22683
   613   2     1.37500   -10.32014   -11.22683
   614   2     1.37500     7.14471    13.47219
   615   1    -5.50000    -4.76314    13.47219
   616   2    -6.87500     2.38157   -13.47219
   617   2    -5.50000     4.76314   -13.47219
   618   2    13.75000     3.17543    -2.24537
   619   2     4.12500    13.49556     2.24537
   620   2    -9.62500    10.32014    -2.24537
   621   3   -13.75000    -3.17543     2.24537
   622   2    -4.12500   -13.49556    -2.24537
   623   2     9.62500   -10.32014     2.24537
   624   2     4.12500    -2.38157    13.47219
   625   2     0.00000    -4.76314   -13.47219
   626   2    12.37500     3.96928    -4.49073
   627   2     2.75000    12.70171     4.49073
   628   2    -9.62500     8.73242    -4.49073
   629   2   -12.37500    -3.96928     4.49073
   630   2    -2.75000   -12.70171    -4.49073
   631   2     9.62500    -8.73242     4.49073
   632   2    -1.37500    -2.38157   -13.47219
   633   2    11.00000     4.76314    -6.73610
   634   2     1.37500    11.90785     6.73610