LAMMPS DATA FOR MEAM SIMULATION

   7803   atoms
      3   atom types

  -39.37   39.37   xlo xhi
  -39.37   39.37   ylo yhi
  -39.37   39.37   zlo zhi

 Atoms

     1   2     0.00000    -0.00000     0.00000
     2   2     2.75000    -0.00000     0.00000
     3   2     1.37500     2.38157     0.00000
     4   2    -1.37500     2.38157     0.00000
     5   2    -2.75000    -0.00000     0.00000
     6   3    -1.37500    -2.38157     0.00000
     7   2     1.37500    -2.38157     0.00000
     8   2     1.37500    -0.79386     2.24537
     9   2     0.00000     1.58771     2.24537
    10   2    -1.37500    -0.79386     2.24537
    11   2     0.00000    -1.58771    -2.24537
    12   2     1.37500     0.79386    -2.24537
    13   1    -1.37500     0.79386    -2.24537
    14   1     5.50000    -0.00000     0.00000
    15   2     2.75000     4.76314     0.00000
    16   2    -2.75000     4.76314     0.00000
    17   1    -5.50000    -0.00000     0.00000
    18   1    -2.75000    -4.76314     0.00000
    19   2     2.75000    -4.76314     0.00000
    20   2     2.75000    -1.58771     4.49073
    21   2     0.00000     3.17543     4.49073
    22   2    -2.75000    -1.58771     4.49073
    23   2     0.00000    -3.17543    -4.49073
    24   2     2.75000     1.58771    -4.49073
    25   1    -2.75000     1.58771    -4.49073
    26   2     4.12500     2.38157     0.00000
    27   2     4.12500    -0.79386     2.24537
    28   2     4.12500     0.79386    -2.24537
    29   1     0.00000     4.76314     0.00000
    30   2     1.37500     3.96928     2.24537
    31   2     2.75000     3.17543    -2.24537
    32   2    -4.12500     2.38157     0.00000
    33   2    -1.37500     3.96928     2.24537
    34   2    -2.75000     3.17543    -2.24537
    35   2    -4.12500    -2.38157     0.00000
    36   2    -4.12500    -0.79386     2.24537
    37   2    -4.12500     0.79386    -2.24537
    38   3     0.00000    -4.76314     0.00000
    39   2    -2.75000    -3.17543     2.24537
    40   2    -1.37500    -3.96928    -2.24537
    41   2     4.12500    -2.38157     0.00000
    42   1     2.75000    -3.17543     2.24537
    43   2     1.37500    -3.96928    -2.24537
    44   2     1.37500     0.79386     4.49073
    45   2     0.00000    -1.58771     4.49073
    46   2    -1.37500     0.79386     4.49073
    47   2     1.37500    -0.79386    -4.49073
    48   2    -1.37500    -0.79386    -4.49073
    49   2     0.00000     1.58771    -4.49073
    50   2     2.75000     1.58771     2.24537
    51   2     0.00000     3.17543    -2.24537
    52   2    -2.75000     1.58771     2.24537
    53   2    -2.75000    -1.58771    -2.24537
    54   2     0.00000    -3.17543     2.24537
    55   2     2.75000    -1.58771    -2.24537
    56   2     8.25000    -0.00000     0.00000
    57   2     4.12500     7.14471     0.00000
    58   2    -4.12500     7.14471     0.00000
    59   2    -8.25000    -0.00000     0.00000
    60   2    -4.12500    -7.14471     0.00000
    61   2     4.12500    -7.14471     0.00000
    62   2     4.12500    -2.38157     6.73610
    63   2     0.00000     4.76314     6.73610
    64   2    -4.12500    -2.38157     6.73610
    65   2     0.00000    -4.76314    -6.73610
    66   2     4.12500     2.38157    -6.73610
    67   2    -4.12500     2.38157    -6.73610
    68   2     6.87500     2.38157     0.00000
    69   2     6.87500    -0.79386     2.24537
    70   2     6.87500     0.79386    -2.24537
    71   2     1.37500     7.14471     0.00000
    72   2     2.75000     6.35085     2.24537
    73   1     4.12500     5.55700    -2.24537
    74   2    -5.50000     4.76314     0.00000
    75   2    -2.75000     6.35085     2.24537
    76   2    -4.12500     5.55700    -2.24537
    77   2    -6.87500    -2.38157     0.00000
    78   2    -6.87500    -0.79386     2.24537
    79   2    -6.87500     0.79386    -2.24537
    80   2    -1.37500    -7.14471     0.00000
    81   2    -4.12500    -5.55700     2.24537
    82   2    -2.75000    -6.35085    -2.24537
    83   2     5.50000    -4.76314     0.00000
    84   2     4.12500    -5.55700     2.24537
    85   2     2.75000    -6.35085    -2.24537
    86   2     2.75000    -0.00000     6.73610
    87   2     1.37500    -2.38157     6.73610
    88   2    -1.37500     2.38157     6.73610
    89   1     1.37500    -2.38157    -6.73610
    90   2    -1.37500    -2.38157    -6.73610
    91   2     1.37500     2.38157    -6.73610
    92   2     5.50000     4.76314     0.00000
    93   2     5.50000    -1.58771     4.49073
    94   2     5.50000     1.58771    -4.49073
    95   1    -1.37500     7.14471     0.00000
    96   2     1.37500     5.55700     4.49073
    97   2     4.12500     3.96928    -4.49073
    98   3    -6.87500     2.38157     0.00000
    99   2    -1.37500     5.55700     4.49073
   100   2    -4.12500     3.96928    -4.49073
   101   2    -5.50000    -4.76314     0.00000
   102   2    -5.50000    -1.58771     4.49073
   103   2    -5.50000     1.58771    -4.49073
   104   2     1.37500    -7.14471     0.00000
   105   2    -4.12500    -3.96928     4.49073
   106   2    -1.37500    -5.55700    -4.49073
   107   2     6.87500    -2.38157     0.00000
   108   1     4.12500    -3.96928     4.49073
   109   2     1.37500    -5.55700    -4.49073
   110   2     1.37500     2.38157     6.73610
   111   2    -1.37500    -2.38157     6.73610
   112   2    -2.75000    -0.00000     6.73610
   113   2     2.75000    -0.00000    -6.73610
   114   3    -2.75000    -0.00000    -6.73610
   115   2    -1.37500     2.38157    -6.73610
   116   1     5.50000     3.17543    -2.24537
   117   3     0.00000     6.35085     2.24537
   118   2    -5.50000     3.17543    -2.24537
   119   2    -5.50000    -3.17543     2.24537
   120   2     0.00000    -6.35085    -2.24537
   121   2     5.50000    -3.17543     2.24537
   122   2     0.00000    -0.00000     6.73610
   123   2     0.00000    -0.00000    -6.73610
   124   2     5.50000     1.58771     2.24537
   125   2     1.37500     5.55700    -2.24537
   126   2    -4.12500     3.96928     2.24537
   127   3    -5.50000    -1.58771    -2.24537
   128   2    -1.37500    -5.55700     2.24537
   129   3     4.12500    -3.96928    -2.24537
   130   1     4.12500     0.79386     4.49073
   131   1     1.37500     3.96928    -4.49073
   132   1    -2.75000     3.17543     4.49073
   133   2    -4.12500    -0.79386    -4.49073
   134   2    -1.37500    -3.96928     4.49073
   135   2     2.75000    -3.17543    -4.49073
   136   2     4.12500     3.96928     2.24537
   137   3    -1.37500     5.55700    -2.24537
   138   2    -5.50000     1.58771     2.24537
   139   2    -4.12500    -3.96928    -2.24537
   140   2     1.37500    -5.55700     2.24537
   141   2     5.50000    -1.58771    -2.24537
   142   2     2.75000     3.17543     4.49073
   143   2    -1.37500     3.96928    -4.49073
   144   2    -4.12500     0.79386     4.49073
   145   2    -2.75000    -3.17543    -4.49073
   146   2     1.37500    -3.96928     4.49073
   147   2     4.12500    -0.79386    -4.49073
   148   2    11.00000    -0.00000     0.00000
   149   2     5.50000     9.52628     0.00000
   150   2    -5.50000     9.52628     0.00000
   151   2   -11.00000    -0.00000     0.00000
   152   2    -5.50000    -9.52628     0.00000
   153   2     5.50000    -9.52628     0.00000
   154   1     5.50000    -3.17543     8.98146
   155   2     0.00000     6.35085     8.98146
   156   2    -5.50000    -3.17543     8.98146
   157   2     0.00000    -6.35085    -8.98146
   158   1     5.50000     3.17543    -8.98146
   159   2    -5.50000     3.17543    -8.98146
   160   2     9.62500     2.38157     0.00000
   161   2     9.62500    -0.79386     2.24537
   162   2     9.62500     0.79386    -2.24537
   163   2     2.75000     9.52628     0.00000
   164   2     4.12500     8.73242     2.24537
   165   2     5.50000     7.93857    -2.24537
   166   2    -6.87500     7.14471     0.00000
   167   2    -4.12500     8.73242     2.24537
   168   2    -5.50000     7.93857    -2.24537
   169   2    -9.62500    -2.38157     0.00000
   170   3    -9.62500    -0.79386     2.24537
   171   2    -9.62500     0.79386    -2.24537
   172   2    -2.75000    -9.52628     0.00000
   173   2    -5.50000    -7.93857     2.24537
   174   2    -4.12500    -8.73242    -2.24537
   175   2     6.87500    -7.14471     0.00000
   176   2     5.50000    -7.93857     2.24537
   177   2     4.12500    -8.73242    -2.24537
   178   2     4.12500    -0.79386     8.98146
   179   2     2.75000    -3.17543     8.98146
   180   2    -1.37500     3.96928     8.98146
   181   2     1.37500    -3.96928    -8.98146
   182   2    -1.37500    -3.96928    -8.98146
   183   2     2.75000     3.17543    -8.98146
   184   2     8.25000     4.76314     0.00000
   185   2     8.25000    -1.58771     4.49073
   186   2     8.25000     1.58771    -4.49073
   187   2     0.00000     9.52628     0.00000
   188   2     2.75000     7.93857     4.49073
   189   2     5.50000     6.35085    -4.49073
   190   3    -8.25000     4.76314     0.00000
   191   2    -2.75000     7.93857     4.49073
   192   3    -5.50000     6.35085    -4.49073
   193   2    -8.25000    -4.76314     0.00000
   194   2    -8.25000    -1.58771     4.49073
   195   2    -8.25000     1.58771    -4.49073
   196   2     0.00000    -9.52628     0.00000
   197   2    -5.50000    -6.35085     4.49073
   198   2    -2.75000    -7.93857    -4.49073
   199   2     8.25000    -4.76314     0.00000
   200   2     5.50000    -6.35085     4.49073
   201   2     2.75000    -7.93857    -4.49073
   202   2     2.75000     1.58771     8.98146
   203   2     0.00000    -3.17543     8.98146
   204   2    -2.75000     1.58771     8.98146
   205   2     2.75000    -1.58771    -8.98146
   206   2    -2.75000    -1.58771    -8.98146
   207   2     0.00000     3.17543    -8.98146
   208   2     6.87500     7.14471     0.00000
   209   2     6.87500    -2.38157     6.73610
   210   2     6.87500     2.38157    -6.73610
   211   2    -2.75000     9.52628     0.00000
   212   1     1.37500     7.14471     6.73610
   213   2     5.50000     4.76314    -6.73610
   214   2    -9.62500     2.38157     0.00000
   215   2    -1.37500     7.14471     6.73610
   216   1    -5.50000     4.76314    -6.73610
   217   2    -6.87500    -7.14471     0.00000
   218   3    -6.87500    -2.38157     6.73610
   219   3    -6.87500     2.38157    -6.73610
   220   2     2.75000    -9.52628     0.00000
   221   1    -5.50000    -4.76314     6.73610
   222   2    -1.37500    -7.14471    -6.73610
   223   2     9.62500    -2.38157     0.00000
   224   2     5.50000    -4.76314     6.73610
   225   2     1.37500    -7.14471    -6.73610
   226   2     1.37500     3.96928     8.98146
   227   2    -2.75000    -3.17543     8.98146
   228   2    -4.12500    -0.79386     8.98146
   229   2     4.12500     0.79386    -8.98146
   230   2    -4.12500     0.79386    -8.98146
   231   2    -2.75000     3.17543    -8.98146
   232   2     8.25000     3.17543    -2.24537
   233   2     1.37500     8.73242     2.24537
   234   2    -6.87500     5.55700    -2.24537
   235   2    -8.25000    -3.17543     2.24537
   236   2    -1.37500    -8.73242    -2.24537
   237   1     6.87500    -5.55700     2.24537
   238   2     1.37500    -0.79386     8.98146
   239   2     0.00000    -1.58771    -8.98146
   240   2     6.87500     3.96928    -4.49073
   241   2     0.00000     7.93857     4.49073
   242   2    -6.87500     3.96928    -4.49073
   243   2    -6.87500    -3.96928     4.49073
   244   2     0.00000    -7.93857    -4.49073
   245   2     6.87500    -3.96928     4.49073
   246   2    -1.37500    -0.79386     8.98146
   247   1    -1.37500     0.79386    -8.98146
   248   2     8.25000     1.58771     2.24537
   249   2     2.75000     7.93857    -2.24537
   250   2    -5.50000     6.35085     2.24537
   251   2    -8.25000    -1.58771    -2.24537
   252   2    -2.75000    -7.93857     2.24537
   253   2     5.50000    -6.35085    -2.24537
   254   2     6.87500     0.79386     4.49073
   255   2     2.75000     6.35085    -4.49073
   256   2    -4.12500     5.55700     4.49073
   257   2    -6.87500    -0.79386    -4.49073
   258   2    -2.75000    -6.35085     4.49073
   259   2     4.12500    -5.55700    -4.49073
   260   2     5.50000    -0.00000     6.73610
   261   2     2.75000     4.76314    -6.73610
   262   2    -2.75000     4.76314     6.73610
   263   2    -5.50000    -0.00000    -6.73610
   264   2    -2.75000    -4.76314     6.73610
   265   2     2.75000    -4.76314    -6.73610
   266   1     6.87500     5.55700    -2.24537
   267   3    -1.37500     8.73242     2.24537
   268   1    -8.25000     3.17543    -2.24537
   269   2    -6.87500    -5.55700     2.24537
   270   2     1.37500    -8.73242    -2.24537
   271   2     8.25000    -3.17543     2.24537
   272   3     0.00000     1.58771     8.98146
   273   2     1.37500     0.79386    -8.98146
   274   2     6.87500     3.96928     2.24537
   275   2     0.00000     7.93857    -2.24537
   276   2    -6.87500     3.96928     2.24537
   277   2    -6.87500    -3.96928    -2.24537
   278   2     0.00000    -7.93857     2.24537
   279   2     6.87500    -3.96928    -2.24537
   280   2     5.50000     3.17543     4.49073
   281   2     0.00000     6.35085    -4.49073
   282   2    -5.50000     3.17543     4.49073
   283   2    -5.50000    -3.17543    -4.49073
   284   2     0.00000    -6.35085     4.49073
   285   1     5.50000    -3.17543    -4.49073
   286   2     4.12500     2.38157     6.73610
   287   2     0.00000     4.76314    -6.73610
   288   2    -4.12500     2.38157     6.73610
   289   2    -4.12500    -2.38157    -6.73610
   290   2     0.00000    -4.76314     6.73610
   291   3     4.12500    -2.38157    -6.73610
   292   2     5.50000     6.35085     2.24537
   293   2    -2.75000     7.93857    -2.24537
   294   2    -8.25000     1.58771     2.24537
   295   2    -5.50000    -6.35085    -2.24537
   296   2     2.75000    -7.93857     2.24537
   297   2     8.25000    -1.58771    -2.24537
   298   2     4.12500     5.55700     4.49073
   299   2    -2.75000     6.35085    -4.49073
   300   2    -6.87500     0.79386     4.49073
   301   2    -4.12500    -5.55700    -4.49073
   302   2     2.75000    -6.35085     4.49073
   303   1     6.87500    -0.79386    -4.49073
   304   2     2.75000     4.76314     6.73610
   305   2    -2.75000     4.76314    -6.73610
   306   1    -5.50000    -0.00000     6.73610
   307   3    -2.75000    -4.76314    -6.73610
   308   2     2.75000    -4.76314     6.73610
   309   2     5.50000    -0.00000    -6.73610
   310   2    13.75000    -0.00000     0.00000
   311   2     6.87500    11.90785     0.00000
   312   2    -6.87500    11.90785     0.00000
   313   2   -13.75000    -0.00000     0.00000
   314   3    -6.87500   -11.90785     0.00000
   315   2     6.87500   -11.90785     0.00000
   316   2     6.87500    -3.96928    11.22683
   317   2     0.00000     7.93857    11.22683
   318   2    -6.87500    -3.96928    11.22683
   319   2     0.00000    -7.93857   -11.22683
   320   2     6.87500     3.96928   -11.22683
   321   2    -6.87500     3.96928   -11.22683
   322   2    12.37500     2.38157     0.00000
   323   2    12.37500    -0.79386     2.24537
   324   2    12.37500     0.79386    -2.24537
   325   2     4.12500    11.90785     0.00000
   326   3     5.50000    11.11399     2.24537
   327   2     6.87500    10.32014    -2.24537
   328   1    -8.25000     9.52628     0.00000
   329   2    -5.50000    11.11399     2.24537
   330   3    -6.87500    10.32014    -2.24537
   331   2   -12.37500    -2.38157     0.00000
   332   2   -12.37500    -0.79386     2.24537
   333   2   -12.37500     0.79386    -2.24537
   334   2    -4.12500   -11.90785     0.00000
   335   2    -6.87500   -10.32014     2.24537
   336   2    -5.50000   -11.11399    -2.24537
   337   2     8.25000    -9.52628     0.00000
   338   2     6.87500   -10.32014     2.24537
   339   2     5.50000   -11.11399    -2.24537
   340   2     5.50000    -1.58771    11.22683
   341   2     4.12500    -3.96928    11.22683
   342   1    -1.37500     5.55700    11.22683
   343   2     1.37500    -5.55700   -11.22683
   344   2    -1.37500    -5.55700   -11.22683
   345   2     4.12500     3.96928   -11.22683
   346   3    11.00000     4.76314     0.00000
   347   2    11.00000    -1.58771     4.49073
   348   2    11.00000     1.58771    -4.49073
   349   2     1.37500    11.90785     0.00000
   350   2     4.12500    10.32014     4.49073
   351   1     6.87500     8.73242    -4.49073
   352   2    -9.62500     7.14471     0.00000
   353   2    -4.12500    10.32014     4.49073
   354   2    -6.87500     8.73242    -4.49073
   355   1   -11.00000    -4.76314     0.00000
   356   2   -11.00000    -1.58771     4.49073
   357   2   -11.00000     1.58771    -4.49073
   358   2    -1.37500   -11.90785     0.00000
   359   2    -6.87500    -8.73242     4.49073
   360   2    -4.12500   -10.32014    -4.49073
   361   2     9.62500    -7.14471     0.00000
   362   2     6.87500    -8.73242     4.49073
   363   2     4.12500   -10.32014    -4.49073
   364   2     4.12500     0.79386    11.22683
   365   2     1.37500    -3.96928    11.22683
   366   2    -2.75000     3.17543    11.22683
   367   2     2.75000    -3.17543   -11.22683
   368   1    -2.75000    -3.17543   -11.22683
   369   2     1.37500     3.96928   -11.22683
   370   2     9.62500     7.14471     0.00000
   371   2     9.62500    -2.38157     6.73610
   372   2     9.62500     2.38157    -6.73610
   373   2    -1.37500    11.90785     0.00000
   374   2     2.75000     9.52628     6.73610
   375   2     6.87500     7.14471    -6.73610
   376   1   -11.00000     4.76314     0.00000
   377   1    -2.75000     9.52628     6.73610
   378   2    -6.87500     7.14471    -6.73610
   379   2    -9.62500    -7.14471     0.00000
   380   2    -9.62500    -2.38157     6.73610
   381   1    -9.62500     2.38157    -6.73610
   382   2     1.37500   -11.90785     0.00000
   383   3    -6.87500    -7.14471     6.73610
   384   2    -2.75000    -9.52628    -6.73610
   385   1    11.00000    -4.76314     0.00000
   386   2     6.87500    -7.14471     6.73610
   387   2     2.75000    -9.52628    -6.73610
   388   2     2.75000     3.17543    11.22683
   389   2    -1.37500    -3.96928    11.22683
   390   2    -4.12500     0.79386    11.22683
   391   2     4.12500    -0.79386   -11.22683
   392   2    -4.12500    -0.79386   -11.22683
   393   2    -1.37500     3.96928   -11.22683
   394   2     8.25000     9.52628     0.00000
   395   2     8.25000    -3.17543     8.98146
   396   3     8.25000     3.17543    -8.98146
   397   3    -4.12500    11.90785     0.00000
   398   2     1.37500     8.73242     8.98146
   399   2     6.87500     5.55700    -8.98146
   400   2   -12.37500     2.38157     0.00000
   401   2    -1.37500     8.73242     8.98146
   402   2    -6.87500     5.55700    -8.98146
   403   2    -8.25000    -9.52628     0.00000
   404   3    -8.25000    -3.17543     8.98146
   405   2    -8.25000     3.17543    -8.98146
   406   2     4.12500   -11.90785     0.00000
   407   2    -6.87500    -5.55700     8.98146
   408   2    -1.37500    -8.73242    -8.98146
   409   2    12.37500    -2.38157     0.00000
   410   2     6.87500    -5.55700     8.98146
   411   1     1.37500    -8.73242    -8.98146
   412   1     1.37500     5.55700    11.22683
   413   2    -4.12500    -3.96928    11.22683
   414   2    -5.50000    -1.58771    11.22683
   415   2     5.50000     1.58771   -11.22683
   416   2    -5.50000     1.58771   -11.22683
   417   2    -4.12500     3.96928   -11.22683
   418   2    11.00000     3.17543    -2.24537
   419   2     2.75000    11.11399     2.24537
   420   2    -8.25000     7.93857    -2.24537
   421   2   -11.00000    -3.17543     2.24537
   422   2    -2.75000   -11.11399    -2.24537
   423   2     8.25000    -7.93857     2.24537
   424   2     2.75000    -1.58771    11.22683
   425   2     0.00000    -3.17543   -11.22683
   426   2     9.62500     3.96928    -4.49073
   427   2     1.37500    10.32014     4.49073
   428   2    -8.25000     6.35085    -4.49073
   429   1    -9.62500    -3.96928     4.49073
   430   2    -1.37500   -10.32014    -4.49073
   431   2     8.25000    -6.35085     4.49073
   432   2     0.00000    -1.58771    11.22683
   433   2    -1.37500    -0.79386   -11.22683
   434   2     8.25000     4.76314    -6.73610
   435   2     0.00000     9.52628     6.73610
   436   3    -8.25000     4.76314    -6.73610
   437   1    -8.25000    -4.76314     6.73610
   438   2     0.00000    -9.52628    -6.73610
   439   2     8.25000    -4.76314     6.73610
   440   2    -2.75000    -1.58771    11.22683
   441   2    -2.75000     1.58771   -11.22683
   442   2    11.00000     1.58771     2.24537
   443   2     4.12500    10.32014    -2.24537
   444   3    -6.87500     8.73242     2.24537
   445   2   -11.00000    -1.58771    -2.24537
   446   1    -4.12500   -10.32014     2.24537
   447   2     6.87500    -8.73242    -2.24537
   448   2     9.62500     0.79386     4.49073
   449   2     4.12500     8.73242    -4.49073
   450   3    -5.50000     7.93857     4.49073
   451   2    -9.62500    -0.79386    -4.49073
   452   2    -4.12500    -8.73242     4.49073
   453   2     5.50000    -7.93857    -4.49073
   454   2     8.25000    -0.00000     6.73610
   455   2     4.12500     7.14471    -6.73610
   456   2    -4.12500     7.14471     6.73610
   457   2    -8.25000    -0.00000    -6.73610
   458   2    -4.12500    -7.14471     6.73610
   459   1     4.12500    -7.14471    -6.73610
   460   3     6.87500    -0.79386     8.98146
   461   2     4.12500     5.55700    -8.98146
   462   2    -2.75000     6.35085     8.98146
   463   2    -6.87500     0.79386    -8.98146
   464   2    -4.12500    -5.55700     8.98146
   465   1     2.75000    -6.35085    -8.98146
   466   2     9.62500     5.55700    -2.24537
   467   2     0.00000    11.11399     2.24537
   468   2    -9.62500     5.55700    -2.24537
   469   2    -9.62500    -5.55700     2.24537
   470   2     0.00000   -11.11399    -2.24537
   471   2     9.62500    -5.55700     2.24537
   472   2     1.37500     0.79386    11.22683
   473   2     1.37500    -0.79386   -11.22683
   474   2     8.25000     6.35085    -4.49073
   475   2    -1.37500    10.32014     4.49073
   476   1    -9.62500     3.96928    -4.49073
   477   2    -8.25000    -6.35085     4.49073
   478   2     1.37500   -10.32014    -4.49073
   479   2     9.62500    -3.96928     4.49073
   480   2    -1.37500     0.79386    11.22683
   481   2     0.00000     1.58771   -11.22683
   482   2     9.62500     3.96928     2.24537
   483   2     1.37500    10.32014    -2.24537
   484   2    -8.25000     6.35085     2.24537
   485   2    -9.62500    -3.96928    -2.24537
   486   2    -1.37500   -10.32014     2.24537
   487   2     8.25000    -6.35085    -2.24537
   488   2     8.25000     3.17543     4.49073
   489   1     1.37500     8.73242    -4.49073
   490   2    -6.87500     5.55700     4.49073
   491   2    -8.25000    -3.17543    -4.49073
   492   3    -1.37500    -8.73242     4.49073
   493   2     6.87500    -5.55700    -4.49073
   494   2     6.87500     2.38157     6.73610
   495   3     1.37500     7.14471    -6.73610
   496   2    -5.50000     4.76314     6.73610
   497   2    -6.87500    -2.38157    -6.73610
   498   2    -1.37500    -7.14471     6.73610
   499   2     5.50000    -4.76314    -6.73610
   500   2     5.50000     1.58771     8.98146
   501   2     1.37500     5.55700    -8.98146
   502   2    -4.12500     3.96928     8.98146
   503   2    -5.50000    -1.58771    -8.98146
   504   2    -1.37500    -5.55700     8.98146
   505   2     4.12500    -3.96928    -8.98146
   506   2     8.25000     7.93857    -2.24537
   507   1    -2.75000    11.11399     2.24537
   508   2   -11.00000     3.17543    -2.24537
   509   2    -8.25000    -7.93857     2.24537
   510   2     2.75000   -11.11399    -2.24537
   511   2    11.00000    -3.17543     2.24537
   512   2     0.00000     3.17543    11.22683
   513   3     2.75000     1.58771   -11.22683
   514   2     8.25000     6.35085     2.24537
   515   2    -1.37500    10.32014    -2.24537
   516   2    -9.62500     3.96928     2.24537
   517   2    -8.25000    -6.35085    -2.24537
   518   2     1.37500   -10.32014     2.24537
   519   2     9.62500    -3.96928    -2.24537
   520   2     6.87500     5.55700     4.49073
   521   2    -1.37500     8.73242    -4.49073
   522   2    -8.25000     3.17543     4.49073
   523   2    -6.87500    -5.55700    -4.49073
   524   2     1.37500    -8.73242     4.49073
   525   2     8.25000    -3.17543    -4.49073
   526   2     5.50000     4.76314     6.73610
   527   2    -1.37500     7.14471    -6.73610
   528   2    -6.87500     2.38157     6.73610
   529   2    -5.50000    -4.76314    -6.73610
   530   2     1.37500    -7.14471     6.73610
   531   2     6.87500    -2.38157    -6.73610
   532   2     4.12500     3.96928     8.98146
   533   2    -1.37500     5.55700    -8.98146
   534   2    -5.50000     1.58771     8.98146
   535   2    -4.12500    -3.96928    -8.98146
   536   2     1.37500    -5.55700     8.98146
   537   2     5.50000    -1.58771    -8.98146
   538   3     6.87500     8.73242     2.24537
   539   2    -4.12500    10.32014    -2.24537
   540   2   -11.00000     1.58771     2.24537
   541   2    -6.87500    -8.73242    -2.24537
   542   2     4.12500   -10.32014     2.24537
   543   2    11.00000    -1.58771    -2.24537
   544   2     5.50000     7.93857     4.49073
   545   2    -4.12500     8.73242    -4.49073
   546   2    -9.62500     0.79386     4.49073
   547   2    -5.50000    -7.93857    -4.49073
   548   2     4.12500    -8.73242     4.49073
   549   2     9.62500    -0.79386    -4.49073
   550   2     4.12500     7.14471     6.73610
   551   2    -4.12500     7.14471    -6.73610
   552   2    -8.25000    -0.00000     6.73610
   553   2    -4.12500    -7.14471    -6.73610
   554   2     4.12500    -7.14471     6.73610
   555   2     8.25000    -0.00000    -6.73610
   556   2     2.75000     6.35085     8.98146
   557   2    -4.12500     5.55700    -8.98146
   558   2    -6.87500    -0.79386     8.98146
   559   2    -2.75000    -6.35085    -8.98146
   560   2     4.12500    -5.55700     8.98146
   561   2     6.87500     0.79386    -8.98146
   562   2    16.50000    -0.00000     0.00000
   563   1     8.25000    14.28942     0.00000
   564   3    -8.25000    14.28942     0.00000
   565   2   -16.50000    -0.00000     0.00000
   566   2    -8.25000   -14.28942     0.00000
   567   2     8.25000   -14.28942     0.00000
   568   2     8.25000    -4.76314    13.47219
   569   2     0.00000     9.52628    13.47219
   570   2    -8.25000    -4.76314    13.47219
   571   2     0.00000    -9.52628   -13.47219
   572   2     8.25000     4.76314   -13.47219
   573   2    -8.25000     4.76314   -13.47219
   574   2    15.12500     2.38157     0.00000
   575   1    15.12500    -0.79386     2.24537
   576   2    15.12500     0.79386    -2.24537
   577   2     5.50000    14.28942     0.00000
   578   2     6.87500    13.49556     2.24537
   579   2     8.25000    12.70171    -2.24537
   580   2    -9.62500    11.90785     0.00000
   581   2    -6.87500    13.49556     2.24537
   582   2    -8.25000    12.70171    -2.24537
   583   2   -15.12500    -2.38157     0.00000
   584   2   -15.12500    -0.79386     2.24537
   585   3   -15.12500     0.79386    -2.24537
   586   2    -5.50000   -14.28942     0.00000
   587   2    -8.25000   -12.70171     2.24537
   588   2    -6.87500   -13.49556    -2.24537
   589   3     9.62500   -11.90785     0.00000
   590   2     8.25000   -12.70171     2.24537
   591   2     6.87500   -13.49556    -2.24537
   592   2     6.87500    -2.38157    13.47219
   593   2     5.50000    -4.76314    13.47219
   594   1    -1.37500     7.14471    13.47219
   595   2     1.37500    -7.14471   -13.47219
   596   2    -1.37500    -7.14471   -13.47219
   597   2     5.50000     4.76314   -13.47219
   598   2    13.75000     4.76314     0.00000
   599   2    13.75000    -1.58771     4.49073
   600   3    13.75000     1.58771    -4.49073
   601   2     2.75000    14.28942     0.00000
   602   2     5.50000    12.70171     4.49073
   603   2     8.25000    11.11399    -4.49073
   604   2   -11.00000     9.52628     0.00000
   605   2    -5.50000    12.70171     4.49073
   606   2    -8.25000    11.11399    -4.49073
   607   2   -13.75000    -4.76314     0.00000
   608   3   -13.75000    -1.58771     4.49073
   609   2   -13.75000     1.58771    -4.49073
   610   2    -2.75000   -14.28942     0.00000
   611   2    -8.25000   -11.11399     4.49073
   612   2    -5.50000   -12.70171    -4.49073
   613   2    11.00000    -9.52628     0.00000
   614   2     8.25000   -11.11399     4.49073
   615   2     5.50000   -12.70171    -4.49073
   616   2     5.50000    -0.00000    13.47219
   617   2     2.75000    -4.76314    13.47219
   618   2    -2.75000     4.76314    13.47219
   619   2     2.75000    -4.76314   -13.47219
   620   2    -2.75000    -4.76314   -13.47219
   621   2     2.75000     4.76314   -13.47219
   622   3    12.37500     7.14471     0.00000
   623   2    12.37500    -2.38157     6.73610
   624   2    12.37500     2.38157    -6.73610
   625   2     0.00000    14.28942     0.00000
   626   2     4.12500    11.90785     6.73610
   627   2     8.25000     9.52628    -6.73610
   628   2   -12.37500     7.14471     0.00000
   629   2    -4.12500    11.90785     6.73610
   630   2    -8.25000     9.52628    -6.73610
   631   2   -12.37500    -7.14471     0.00000
   632   2   -12.37500    -2.38157     6.73610
   633   2   -12.37500     2.38157    -6.73610
   634   2     0.00000   -14.28942     0.00000