LAMMPS DATA FOR MEAM SIMULATION

   2739   atoms
      3   atom types

  -31.43   31.43   xlo xhi
  -31.43   31.43   ylo yhi
  -31.43   31.43   zlo zhi

 Atoms

     1   2     0.00000    -0.00000     0.00000
     2   2     2.75000    -0.00000     0.00000
     3   2     1.37500     2.38157     0.00000
     4   1    -1.37500     2.38157     0.00000
     5   3    -2.75000    -0.00000     0.00000
     6   2    -1.37500    -2.38157     0.00000
     7   2     1.37500    -2.38157     0.00000
     8   2     1.37500    -0.79386     2.24537
     9   2     0.00000     1.58771     2.24537
    10   2     0.00000    -1.58771    -2.24537
    11   2     2.75000     4.76314     0.00000
    12   2    -2.75000     4.76314     0.00000
    13   2    -2.75000    -4.76314     0.00000
    14   2     2.75000    -4.76314     0.00000
    15   2     2.75000    -1.58771     4.49073
    16   1     0.00000     3.17543     4.49073
    17   2    -2.75000    -1.58771     4.49073
    18   1     0.00000    -3.17543    -4.49073
    19   2    -2.75000     1.58771    -4.49073
    20   2     4.12500     2.38157     0.00000
    21   3     4.12500     0.79386    -2.24537
    22   2     0.00000     4.76314     0.00000
    23   2     1.37500     3.96928     2.24537
    24   2     2.75000     3.17543    -2.24537
    25   2    -4.12500     2.38157     0.00000
    26   2    -1.37500     3.96928     2.24537
    27   2    -2.75000     3.17543    -2.24537
    28   2    -4.12500    -0.79386     2.24537
    29   2    -4.12500     0.79386    -2.24537
    30   2     0.00000    -4.76314     0.00000
    31   2    -2.75000    -3.17543     2.24537
    32   2    -1.37500    -3.96928    -2.24537
    33   2     4.12500    -2.38157     0.00000
    34   2     2.75000    -3.17543     2.24537
    35   2     1.37500    -3.96928    -2.24537
    36   2     1.37500     0.79386     4.49073
    37   2     0.00000    -1.58771     4.49073
    38   1    -1.37500     0.79386     4.49073
    39   2     1.37500    -0.79386    -4.49073
    40   2    -1.37500    -0.79386    -4.49073
    41   2     0.00000     1.58771    -4.49073
    42   2     2.75000     1.58771     2.24537
    43   2     0.00000     3.17543    -2.24537
    44   2    -2.75000     1.58771     2.24537
    45   2    -2.75000    -1.58771    -2.24537
    46   2     0.00000    -3.17543     2.24537
    47   2     2.75000    -1.58771    -2.24537
    48   1     8.25000    -0.00000     0.00000
    49   2     4.12500     7.14471     0.00000
    50   2    -4.12500     7.14471     0.00000
    51   2    -8.25000    -0.00000     0.00000
    52   2    -4.12500    -7.14471     0.00000
    53   2     4.12500    -7.14471     0.00000
    54   2     4.12500    -2.38157     6.73610
    55   1     0.00000     4.76314     6.73610
    56   2    -4.12500    -2.38157     6.73610
    57   3     0.00000    -4.76314    -6.73610
    58   2     4.12500     2.38157    -6.73610
    59   2    -4.12500     2.38157    -6.73610
    60   3     6.87500     2.38157     0.00000
    61   2     6.87500    -0.79386     2.24537
    62   2     6.87500     0.79386    -2.24537
    63   2     1.37500     7.14471     0.00000
    64   2     2.75000     6.35085     2.24537
    65   2     4.12500     5.55700    -2.24537
    66   2    -2.75000     6.35085     2.24537
    67   3    -4.12500     5.55700    -2.24537
    68   1    -6.87500    -2.38157     0.00000
    69   2    -6.87500    -0.79386     2.24537
    70   2    -4.12500    -5.55700     2.24537
    71   2    -2.75000    -6.35085    -2.24537
    72   1     5.50000    -4.76314     0.00000
    73   2     4.12500    -5.55700     2.24537
    74   2     2.75000    -6.35085    -2.24537
    75   2     2.75000    -0.00000     6.73610
    76   2     1.37500    -2.38157     6.73610
    77   2    -1.37500     2.38157     6.73610
    78   3     1.37500    -2.38157    -6.73610
    79   2    -1.37500    -2.38157    -6.73610
    80   2     1.37500     2.38157    -6.73610
    81   2     5.50000     4.76314     0.00000
    82   2     5.50000     1.58771    -4.49073
    83   2    -1.37500     7.14471     0.00000
    84   1     4.12500     3.96928    -4.49073
    85   2    -6.87500     2.38157     0.00000
    86   1    -4.12500     3.96928    -4.49073
    87   2    -5.50000    -4.76314     0.00000
    88   2    -5.50000    -1.58771     4.49073
    89   2    -5.50000     1.58771    -4.49073
    90   2    -4.12500    -3.96928     4.49073
    91   2    -1.37500    -5.55700    -4.49073
    92   2     4.12500    -3.96928     4.49073
    93   2    -1.37500    -2.38157     6.73610
    94   3    -2.75000    -0.00000     6.73610
    95   2     2.75000    -0.00000    -6.73610
    96   2    -2.75000    -0.00000    -6.73610
    97   2    -1.37500     2.38157    -6.73610
    98   2     5.50000     3.17543    -2.24537
    99   2     0.00000     6.35085     2.24537
   100   2    -5.50000     3.17543    -2.24537
   101   2    -5.50000    -3.17543     2.24537
   102   2     0.00000    -6.35085    -2.24537
   103   2     5.50000    -3.17543     2.24537
   104   2     5.50000     1.58771     2.24537
   105   2     1.37500     5.55700    -2.24537
   106   2    -4.12500     3.96928     2.24537
   107   2    -5.50000    -1.58771    -2.24537
   108   2    -1.37500    -5.55700     2.24537
   109   2     4.12500    -3.96928    -2.24537
   110   2     4.12500     0.79386     4.49073
   111   2     1.37500     3.96928    -4.49073
   112   2    -2.75000     3.17543     4.49073
   113   2    -4.12500    -0.79386    -4.49073
   114   2    -1.37500    -3.96928     4.49073
   115   2     4.12500     3.96928     2.24537
   116   2    -1.37500     5.55700    -2.24537
   117   1    -5.50000     1.58771     2.24537
   118   2    -4.12500    -3.96928    -2.24537
   119   3     1.37500    -5.55700     2.24537
   120   2     5.50000    -1.58771    -2.24537
   121   2     2.75000     3.17543     4.49073
   122   2    -1.37500     3.96928    -4.49073
   123   2    -4.12500     0.79386     4.49073
   124   1     1.37500    -3.96928     4.49073
   125   2     4.12500    -0.79386    -4.49073
   126   2    11.00000    -0.00000     0.00000
   127   2     5.50000     9.52628     0.00000
   128   2    -5.50000     9.52628     0.00000
   129   2   -11.00000    -0.00000     0.00000
   130   2    -5.50000    -9.52628     0.00000
   131   2     5.50000    -9.52628     0.00000
   132   2     0.00000     6.35085     8.98146
   133   2    -5.50000    -3.17543     8.98146
   134   2     0.00000    -6.35085    -8.98146
   135   2     5.50000     3.17543    -8.98146
   136   2    -5.50000     3.17543    -8.98146
   137   2     9.62500     2.38157     0.00000
   138   2     9.62500    -0.79386     2.24537
   139   2     9.62500     0.79386    -2.24537
   140   2     2.75000     9.52628     0.00000
   141   2     4.12500     8.73242     2.24537
   142   2     5.50000     7.93857    -2.24537
   143   2    -6.87500     7.14471     0.00000
   144   2    -4.12500     8.73242     2.24537
   145   2    -5.50000     7.93857    -2.24537
   146   2    -9.62500    -2.38157     0.00000
   147   3    -9.62500    -0.79386     2.24537
   148   2    -2.75000    -9.52628     0.00000
   149   2    -5.50000    -7.93857     2.24537
   150   2    -4.12500    -8.73242    -2.24537
   151   3     6.87500    -7.14471     0.00000
   152   2     5.50000    -7.93857     2.24537
   153   2     4.12500    -8.73242    -2.24537
   154   1     4.12500    -0.79386     8.98146
   155   2     2.75000    -3.17543     8.98146
   156   2    -1.37500     3.96928     8.98146
   157   2     1.37500    -3.96928    -8.98146
   158   2    -1.37500    -3.96928    -8.98146
   159   2     2.75000     3.17543    -8.98146
   160   2     8.25000     4.76314     0.00000
   161   2     8.25000    -1.58771     4.49073
   162   2     8.25000     1.58771    -4.49073
   163   2     0.00000     9.52628     0.00000
   164   2     5.50000     6.35085    -4.49073
   165   2    -8.25000     4.76314     0.00000
   166   2    -2.75000     7.93857     4.49073
   167   2    -5.50000     6.35085    -4.49073
   168   2    -8.25000    -4.76314     0.00000
   169   2    -8.25000    -1.58771     4.49073
   170   2    -8.25000     1.58771    -4.49073
   171   2     0.00000    -9.52628     0.00000
   172   1    -5.50000    -6.35085     4.49073
   173   2    -2.75000    -7.93857    -4.49073
   174   2     8.25000    -4.76314     0.00000
   175   2     5.50000    -6.35085     4.49073
   176   2     2.75000    -7.93857    -4.49073
   177   2     2.75000     1.58771     8.98146
   178   3     0.00000    -3.17543     8.98146
   179   2    -2.75000     1.58771     8.98146
   180   2     2.75000    -1.58771    -8.98146
   181   2    -2.75000    -1.58771    -8.98146
   182   2     0.00000     3.17543    -8.98146
   183   1     6.87500     7.14471     0.00000
   184   2     6.87500    -2.38157     6.73610
   185   2     6.87500     2.38157    -6.73610
   186   2    -2.75000     9.52628     0.00000
   187   2     1.37500     7.14471     6.73610
   188   2     5.50000     4.76314    -6.73610
   189   2    -9.62500     2.38157     0.00000
   190   2    -1.37500     7.14471     6.73610
   191   2    -5.50000     4.76314    -6.73610
   192   2    -6.87500    -7.14471     0.00000
   193   2    -6.87500    -2.38157     6.73610
   194   2    -6.87500     2.38157    -6.73610
   195   2     2.75000    -9.52628     0.00000
   196   2    -1.37500    -7.14471    -6.73610
   197   1     9.62500    -2.38157     0.00000
   198   2     1.37500    -7.14471    -6.73610
   199   2     1.37500     3.96928     8.98146
   200   2    -2.75000    -3.17543     8.98146
   201   2    -4.12500    -0.79386     8.98146
   202   2     4.12500     0.79386    -8.98146
   203   2    -4.12500     0.79386    -8.98146
   204   2    -2.75000     3.17543    -8.98146
   205   2    -6.87500     5.55700    -2.24537
   206   2    -8.25000    -3.17543     2.24537
   207   2    -1.37500    -8.73242    -2.24537
   208   2     6.87500    -5.55700     2.24537
   209   2     1.37500    -0.79386     8.98146
   210   2     0.00000    -1.58771    -8.98146
   211   2     6.87500     3.96928    -4.49073
   212   2     0.00000     7.93857     4.49073
   213   2    -6.87500    -3.96928     4.49073
   214   2     0.00000    -7.93857    -4.49073
   215   2     6.87500    -3.96928     4.49073
   216   2    -1.37500    -0.79386     8.98146
   217   3    -1.37500     0.79386    -8.98146
   218   2     8.25000     1.58771     2.24537
   219   2     2.75000     7.93857    -2.24537
   220   2    -5.50000     6.35085     2.24537
   221   2    -2.75000    -7.93857     2.24537
   222   2     5.50000    -6.35085    -2.24537
   223   2     2.75000     6.35085    -4.49073
   224   2    -4.12500     5.55700     4.49073
   225   2    -6.87500    -0.79386    -4.49073
   226   2    -2.75000    -6.35085     4.49073
   227   2     4.12500    -5.55700    -4.49073
   228   2     5.50000    -0.00000     6.73610
   229   2     2.75000     4.76314    -6.73610
   230   1    -5.50000    -0.00000    -6.73610
   231   2     2.75000    -4.76314    -6.73610
   232   2    -1.37500     8.73242     2.24537
   233   2    -8.25000     3.17543    -2.24537
   234   2    -6.87500    -5.55700     2.24537
   235   2     1.37500    -8.73242    -2.24537
   236   2     8.25000    -3.17543     2.24537
   237   2     0.00000     1.58771     8.98146
   238   2     1.37500     0.79386    -8.98146
   239   2     6.87500     3.96928     2.24537
   240   2     0.00000     7.93857    -2.24537
   241   2    -6.87500     3.96928     2.24537
   242   3    -6.87500    -3.96928    -2.24537
   243   2     0.00000    -7.93857     2.24537
   244   2     6.87500    -3.96928    -2.24537
   245   2     0.00000     6.35085    -4.49073
   246   2    -5.50000     3.17543     4.49073
   247   2    -5.50000    -3.17543    -4.49073
   248   2     0.00000    -6.35085     4.49073
   249   2     5.50000    -3.17543    -4.49073
   250   1     4.12500     2.38157     6.73610
   251   2     0.00000     4.76314    -6.73610
   252   1    -4.12500     2.38157     6.73610
   253   2    -4.12500    -2.38157    -6.73610
   254   2     0.00000    -4.76314     6.73610
   255   2     4.12500    -2.38157    -6.73610
   256   2     5.50000     6.35085     2.24537
   257   3    -2.75000     7.93857    -2.24537
   258   2    -8.25000     1.58771     2.24537
   259   2    -5.50000    -6.35085    -2.24537
   260   3     2.75000    -7.93857     2.24537
   261   2     8.25000    -1.58771    -2.24537
   262   2     4.12500     5.55700     4.49073
   263   2    -2.75000     6.35085    -4.49073
   264   2    -6.87500     0.79386     4.49073
   265   2    -4.12500    -5.55700    -4.49073
   266   2     2.75000    -6.35085     4.49073
   267   2     6.87500    -0.79386    -4.49073
   268   2     2.75000     4.76314     6.73610
   269   2    -2.75000     4.76314    -6.73610
   270   2    -5.50000    -0.00000     6.73610
   271   2    -2.75000    -4.76314    -6.73610
   272   2     2.75000    -4.76314     6.73610
   273   2     5.50000    -0.00000    -6.73610
   274   2    13.75000    -0.00000     0.00000
   275   2     6.87500    11.90785     0.00000
   276   2    -6.87500    11.90785     0.00000
   277   1   -13.75000    -0.00000     0.00000
   278   2     6.87500   -11.90785     0.00000
   279   2     6.87500    -3.96928    11.22683
   280   2     0.00000     7.93857    11.22683
   281   2    -6.87500    -3.96928    11.22683
   282   2     0.00000    -7.93857   -11.22683
   283   2     6.87500     3.96928   -11.22683
   284   2    -6.87500     3.96928   -11.22683
   285   3    12.37500     2.38157     0.00000
   286   2    12.37500    -0.79386     2.24537
   287   2     4.12500    11.90785     0.00000
   288   2     5.50000    11.11399     2.24537
   289   2     6.87500    10.32014    -2.24537
   290   2    -8.25000     9.52628     0.00000
   291   2    -5.50000    11.11399     2.24537
   292   2    -6.87500    10.32014    -2.24537
   293   2   -12.37500    -0.79386     2.24537
   294   2   -12.37500     0.79386    -2.24537
   295   2    -4.12500   -11.90785     0.00000
   296   1    -6.87500   -10.32014     2.24537
   297   2    -5.50000   -11.11399    -2.24537
   298   2     8.25000    -9.52628     0.00000
   299   2     6.87500   -10.32014     2.24537
   300   2     5.50000   -11.11399    -2.24537
   301   2     5.50000    -1.58771    11.22683
   302   3     4.12500    -3.96928    11.22683
   303   2    -1.37500     5.55700    11.22683
   304   2     1.37500    -5.55700   -11.22683
   305   2    -1.37500    -5.55700   -11.22683
   306   2     4.12500     3.96928   -11.22683
   307   2    11.00000     4.76314     0.00000
   308   2    11.00000    -1.58771     4.49073
   309   2    11.00000     1.58771    -4.49073
   310   2     1.37500    11.90785     0.00000
   311   2     4.12500    10.32014     4.49073
   312   3     6.87500     8.73242    -4.49073
   313   2    -9.62500     7.14471     0.00000
   314   2    -6.87500     8.73242    -4.49073
   315   2   -11.00000    -4.76314     0.00000
   316   2   -11.00000    -1.58771     4.49073
   317   2   -11.00000     1.58771    -4.49073
   318   2    -1.37500   -11.90785     0.00000
   319   1    -6.87500    -8.73242     4.49073
   320   2    -4.12500   -10.32014    -4.49073
   321   3     9.62500    -7.14471     0.00000
   322   2     6.87500    -8.73242     4.49073
   323   2     4.12500   -10.32014    -4.49073
   324   2     4.12500     0.79386    11.22683
   325   2     1.37500    -3.96928    11.22683
   326   2    -2.75000     3.17543    11.22683
   327   2     2.75000    -3.17543   -11.22683
   328   2    -2.75000    -3.17543   -11.22683
   329   2     1.37500     3.96928   -11.22683
   330   3     9.62500     2.38157    -6.73610
   331   2    -1.37500    11.90785     0.00000
   332   2     2.75000     9.52628     6.73610
   333   2     6.87500     7.14471    -6.73610
   334   2   -11.00000     4.76314     0.00000
   335   2    -2.75000     9.52628     6.73610
   336   2    -6.87500     7.14471    -6.73610
   337   3    -9.62500    -7.14471     0.00000
   338   1    -9.62500    -2.38157     6.73610
   339   2    -9.62500     2.38157    -6.73610
   340   2     1.37500   -11.90785     0.00000
   341   2    -6.87500    -7.14471     6.73610
   342   2    11.00000    -4.76314     0.00000
   343   2     6.87500    -7.14471     6.73610
   344   2     2.75000    -9.52628    -6.73610
   345   3     2.75000     3.17543    11.22683
   346   2    -1.37500    -3.96928    11.22683
   347   2    -4.12500     0.79386    11.22683
   348   2     4.12500    -0.79386   -11.22683
   349   2    -4.12500    -0.79386   -11.22683
   350   2     8.25000     9.52628     0.00000
   351   2     8.25000    -3.17543     8.98146
   352   1     8.25000     3.17543    -8.98146
   353   2    -4.12500    11.90785     0.00000
   354   2     1.37500     8.73242     8.98146
   355   2     6.87500     5.55700    -8.98146
   356   2   -12.37500     2.38157     0.00000
   357   2    -1.37500     8.73242     8.98146
   358   2    -6.87500     5.55700    -8.98146
   359   2    -8.25000    -9.52628     0.00000
   360   2    -8.25000     3.17543    -8.98146
   361   2     4.12500   -11.90785     0.00000
   362   2    -1.37500    -8.73242    -8.98146
   363   2    12.37500    -2.38157     0.00000
   364   2     6.87500    -5.55700     8.98146
   365   2     1.37500    -8.73242    -8.98146
   366   2     1.37500     5.55700    11.22683
   367   1    -4.12500    -3.96928    11.22683
   368   2     5.50000     1.58771   -11.22683
   369   1    -5.50000     1.58771   -11.22683
   370   2    -4.12500     3.96928   -11.22683
   371   2    11.00000     3.17543    -2.24537
   372   2     2.75000    11.11399     2.24537
   373   2    -8.25000     7.93857    -2.24537
   374   2   -11.00000    -3.17543     2.24537
   375   3    -2.75000   -11.11399    -2.24537
   376   2     0.00000    -3.17543   -11.22683
   377   3     9.62500     3.96928    -4.49073
   378   2     1.37500    10.32014     4.49073
   379   2    -8.25000     6.35085    -4.49073
   380   3    -9.62500    -3.96928     4.49073
   381   2    -1.37500   -10.32014    -4.49073
   382   2     0.00000    -1.58771    11.22683
   383   3    -1.37500    -0.79386   -11.22683
   384   1     8.25000     4.76314    -6.73610
   385   2     0.00000     9.52628     6.73610
   386   2    -8.25000     4.76314    -6.73610
   387   2    -8.25000    -4.76314     6.73610
   388   2     0.00000    -9.52628    -6.73610
   389   2     8.25000    -4.76314     6.73610
   390   2    -2.75000    -1.58771    11.22683
   391   2    -2.75000     1.58771   -11.22683
   392   3    11.00000     1.58771     2.24537
   393   3     4.12500    10.32014    -2.24537
   394   2    -6.87500     8.73242     2.24537
   395   2   -11.00000    -1.58771    -2.24537
   396   2    -4.12500   -10.32014     2.24537
   397   2     6.87500    -8.73242    -2.24537
   398   1     9.62500     0.79386     4.49073
   399   2     4.12500     8.73242    -4.49073
   400   2    -5.50000     7.93857     4.49073
   401   2    -9.62500    -0.79386    -4.49073
   402   3     5.50000    -7.93857    -4.49073
   403   2     8.25000    -0.00000     6.73610
   404   2     4.12500     7.14471    -6.73610
   405   2    -4.12500     7.14471     6.73610
   406   2    -8.25000    -0.00000    -6.73610
   407   2    -4.12500    -7.14471     6.73610
   408   3     4.12500    -7.14471    -6.73610
   409   2     6.87500    -0.79386     8.98146
   410   2     4.12500     5.55700    -8.98146
   411   2    -2.75000     6.35085     8.98146
   412   2    -6.87500     0.79386    -8.98146
   413   2    -4.12500    -5.55700     8.98146
   414   2     2.75000    -6.35085    -8.98146
   415   1     9.62500     5.55700    -2.24537
   416   2     0.00000    11.11399     2.24537
   417   2    -9.62500     5.55700    -2.24537
   418   2     0.00000   -11.11399    -2.24537
   419   2     9.62500    -5.55700     2.24537
   420   2     1.37500     0.79386    11.22683
   421   2     1.37500    -0.79386   -11.22683
   422   2     8.25000     6.35085    -4.49073
   423   1    -1.37500    10.32014     4.49073
   424   3    -9.62500     3.96928    -4.49073
   425   2    -8.25000    -6.35085     4.49073
   426   2     9.62500    -3.96928     4.49073
   427   1    -1.37500     0.79386    11.22683
   428   2     0.00000     1.58771   -11.22683
   429   2     9.62500     3.96928     2.24537
   430   2     1.37500    10.32014    -2.24537
   431   2    -8.25000     6.35085     2.24537
   432   2    -9.62500    -3.96928    -2.24537
   433   3    -1.37500   -10.32014     2.24537
   434   2     8.25000    -6.35085    -2.24537
   435   2     8.25000     3.17543     4.49073
   436   2     1.37500     8.73242    -4.49073
   437   2    -6.87500     5.55700     4.49073
   438   2    -8.25000    -3.17543    -4.49073
   439   2    -1.37500    -8.73242     4.49073
   440   1     6.87500    -5.55700    -4.49073
   441   2     6.87500     2.38157     6.73610
   442   2     1.37500     7.14471    -6.73610
   443   2    -5.50000     4.76314     6.73610
   444   2    -6.87500    -2.38157    -6.73610
   445   2     5.50000     1.58771     8.98146
   446   2     1.37500     5.55700    -8.98146
   447   2    -5.50000    -1.58771    -8.98146
   448   2     4.12500    -3.96928    -8.98146
   449   2     8.25000     7.93857    -2.24537
   450   2    -2.75000    11.11399     2.24537
   451   2   -11.00000     3.17543    -2.24537
   452   2    -8.25000    -7.93857     2.24537
   453   2     2.75000   -11.11399    -2.24537
   454   2     0.00000     3.17543    11.22683
   455   2     2.75000     1.58771   -11.22683
   456   2     8.25000     6.35085     2.24537
   457   2    -1.37500    10.32014    -2.24537
   458   2    -9.62500     3.96928     2.24537
   459   2    -8.25000    -6.35085    -2.24537
   460   2     1.37500   -10.32014     2.24537
   461   3     9.62500    -3.96928    -2.24537
   462   2    -1.37500     8.73242    -4.49073
   463   2    -8.25000     3.17543     4.49073
   464   2    -6.87500    -5.55700    -4.49073
   465   2     1.37500    -8.73242     4.49073
   466   2     8.25000    -3.17543    -4.49073
   467   2     5.50000     4.76314     6.73610
   468   2    -1.37500     7.14471    -6.73610
   469   2    -6.87500     2.38157     6.73610
   470   2    -5.50000    -4.76314    -6.73610
   471   2     1.37500    -7.14471     6.73610
   472   2     6.87500    -2.38157    -6.73610
   473   2     4.12500     3.96928     8.98146
   474   1    -1.37500     5.55700    -8.98146
   475   2    -5.50000     1.58771     8.98146
   476   2    -4.12500    -3.96928    -8.98146
   477   2     1.37500    -5.55700     8.98146
   478   2     5.50000    -1.58771    -8.98146
   479   3     6.87500     8.73242     2.24537
   480   2    -4.12500    10.32014    -2.24537
   481   2   -11.00000     1.58771     2.24537
   482   2    -6.87500    -8.73242    -2.24537
   483   2     4.12500   -10.32014     2.24537
   484   2    11.00000    -1.58771    -2.24537
   485   2     5.50000     7.93857     4.49073
   486   2    -4.12500     8.73242    -4.49073
   487   2    -9.62500     0.79386     4.49073
   488   2     4.12500    -8.73242     4.49073
   489   2     9.62500    -0.79386    -4.49073
   490   3     4.12500     7.14471     6.73610
   491   2    -4.12500     7.14471    -6.73610
   492   2    -8.25000    -0.00000     6.73610
   493   2     4.12500    -7.14471     6.73610
   494   2     8.25000    -0.00000    -6.73610
   495   2     2.75000     6.35085     8.98146
   496   2    -4.12500     5.55700    -8.98146
   497   2    -6.87500    -0.79386     8.98146
   498   2    -2.75000    -6.35085    -8.98146
   499   1     6.87500     0.79386    -8.98146
   500   2     8.25000    14.28942     0.00000
   501   2    -8.25000    14.28942     0.00000
   502   2   -16.50000    -0.00000     0.00000
   503   2    -8.25000   -14.28942     0.00000
   504   2     8.25000   -14.28942     0.00000
   505   2     8.25000    -4.76314    13.47219
   506   2     0.00000     9.52628    13.47219
   507   1    -8.25000    -4.76314    13.47219
   508   1     0.00000    -9.52628   -13.47219
   509   2     8.25000     4.76314   -13.47219
   510   2    -8.25000     4.76314   -13.47219
   511   1    15.12500    -0.79386     2.24537
   512   2    15.12500     0.79386    -2.24537
   513   1     5.50000    14.28942     0.00000
   514   2     6.87500    13.49556     2.24537
   515   3     8.25000    12.70171    -2.24537
   516   2    -9.62500    11.90785     0.00000
   517   2    -6.87500    13.49556     2.24537
   518   2    -8.25000    12.70171    -2.24537
   519   2   -15.12500    -2.38157     0.00000
   520   2   -15.12500    -0.79386     2.24537
   521   3   -15.12500     0.79386    -2.24537
   522   2    -5.50000   -14.28942     0.00000
   523   2    -8.25000   -12.70171     2.24537
   524   1    -6.87500   -13.49556    -2.24537
   525   2     9.62500   -11.90785     0.00000
   526   2     8.25000   -12.70171     2.24537
   527   2     6.87500   -13.49556    -2.24537
   528   2     6.87500    -2.38157    13.47219
   529   2     5.50000    -4.76314    13.47219
   530   2    -1.37500     7.14471    13.47219
   531   2     1.37500    -7.14471   -13.47219
   532   2    -1.37500    -7.14471   -13.47219
   533   2     5.50000     4.76314   -13.47219
   534   2    13.75000     4.76314     0.00000
   535   2    13.75000    -1.58771     4.49073
   536   2     5.50000    12.70171     4.49073
   537   2     8.25000    11.11399    -4.49073
   538   2   -11.00000     9.52628     0.00000
   539   1    -5.50000    12.70171     4.49073
   540   2    -8.25000    11.11399    -4.49073
   541   2   -13.75000    -4.76314     0.00000
   542   2   -13.75000    -1.58771     4.49073
   543   2   -13.75000     1.58771    -4.49073
   544   2    -2.75000   -14.28942     0.00000
   545   1    -5.50000   -12.70171    -4.49073
   546   2    11.00000    -9.52628     0.00000
   547   2     8.25000   -11.11399     4.49073
   548   1     5.50000    -0.00000    13.47219
   549   2     2.75000    -4.76314    13.47219
   550   2    -2.75000     4.76314    13.47219
   551   2     2.75000    -4.76314   -13.47219
   552   2    -2.75000    -4.76314   -13.47219
   553   2     2.75000     4.76314   -13.47219
   554   2    12.37500    -2.38157     6.73610
   555   2    12.37500     2.38157    -6.73610
   556   2     0.00000    14.28942     0.00000
   557   2     4.12500    11.90785     6.73610
   558   2     8.25000     9.52628    -6.73610
   559   1   -12.37500     7.14471     0.00000
   560   2    -4.12500    11.90785     6.73610
   561   2    -8.25000     9.52628    -6.73610
   562   2   -12.37500    -7.14471     0.00000
   563   2   -12.37500    -2.38157     6.73610
   564   2   -12.37500     2.38157    -6.73610
   565   1     0.00000   -14.28942     0.00000
   566   2    -8.25000    -9.52628     6.73610
   567   2    -4.12500   -11.90785    -6.73610
   568   1    12.37500    -7.14471     0.00000
   569   2     8.25000    -9.52628     6.73610
   570   2     4.12500   -11.90785    -6.73610
   571   2     0.00000    -4.76314    13.47219
   572   2    -4.12500     2.38157    13.47219
   573   2     4.12500    -2.38157   -13.47219
   574   2    -4.12500    -2.38157   -13.47219
   575   2     0.00000     4.76314   -13.47219
   576   2    11.00000     9.52628     0.00000
   577   2    11.00000    -3.17543     8.98146
   578   2    11.00000     3.17543    -8.98146
   579   2    -2.75000    14.28942     0.00000
   580   1     2.75000    11.11399     8.98146
   581   2     8.25000     7.93857    -8.98146
   582   1   -13.75000     4.76314     0.00000
   583   2    -2.75000    11.11399     8.98146
   584   3   -11.00000    -9.52628     0.00000
   585   2   -11.00000    -3.17543     8.98146
   586   3     2.75000   -14.28942     0.00000
   587   2    -8.25000    -7.93857     8.98146
   588   2    -2.75000   -11.11399    -8.98146
   589   1    13.75000    -4.76314     0.00000
   590   2     8.25000    -7.93857     8.98146
   591   3     2.75000     4.76314    13.47219
   592   1    -2.75000    -4.76314    13.47219
   593   2    -5.50000    -0.00000    13.47219
   594   2     5.50000    -0.00000   -13.47219
   595   2    -5.50000    -0.00000   -13.47219
   596   2     9.62500    11.90785     0.00000
   597   3     9.62500    -3.96928    11.22683
   598   2     9.62500     3.96928   -11.22683
   599   2    -5.50000    14.28942     0.00000
   600   2     1.37500    10.32014    11.22683
   601   2     8.25000     6.35085   -11.22683
   602   1   -15.12500     2.38157     0.00000
   603   2    -1.37500    10.32014    11.22683
   604   2    -9.62500   -11.90785     0.00000
   605   2    -9.62500    -3.96928    11.22683
   606   1    -9.62500     3.96928   -11.22683
   607   2     5.50000   -14.28942     0.00000
   608   1    -8.25000    -6.35085    11.22683
   609   2    -1.37500   -10.32014   -11.22683
   610   2    15.12500    -2.38157     0.00000
   611   2     8.25000    -6.35085    11.22683
   612   2     1.37500   -10.32014   -11.22683
   613   2     1.37500     7.14471    13.47219
   614   1    -5.50000    -4.76314    13.47219
   615   2    -6.87500    -2.38157    13.47219
   616   2     6.87500     2.38157   -13.47219
   617   2    -6.87500     2.38157   -13.47219
   618   2    -5.50000     4.76314   -13.47219
   619   2    13.75000     3.17543    -2.24537
   620   2     4.12500    13.49556     2.24537
   621   2    -9.62500    10.32014    -2.24537
   622   3   -13.75000    -3.17543     2.24537
   623   2    -4.12500   -13.49556    -2.24537
   624   2     9.62500   -10.32014     2.24537
   625   2     4.12500    -2.38157    13.47219
   626   2     0.00000    -4.76314   -13.47219
   627   2    12.37500     3.96928    -4.49073
   628   2     2.75000    12.70171     4.49073
   629   2    -9.62500     8.73242    -4.49073
   630   2   -12.37500    -3.96928     4.49073
   631   2    -2.75000   -12.70171    -4.49073
   632   2     9.62500    -8.73242     4.49073
   633   2     1.37500    -2.38157    13.47219
   634   2    -1.37500    -2.38157   -13.47219