LAMMPS DATA FOR MEAM SIMULATION

   2587   atoms
      3   atom types

  -31.43   31.43   xlo xhi
  -31.43   31.43   ylo yhi
  -31.43   31.43   zlo zhi

 Atoms

     1   2     0.00000    -0.00000     0.00000
     2   2     2.75000    -0.00000     0.00000
     3   2     1.37500     2.38157     0.00000
     4   3    -2.75000    -0.00000     0.00000
     5   2    -1.37500    -2.38157     0.00000
     6   2     1.37500    -2.38157     0.00000
     7   2     1.37500    -0.79386     2.24537
     8   2     0.00000     1.58771     2.24537
     9   2    -1.37500    -0.79386     2.24537
    10   2     0.00000    -1.58771    -2.24537
    11   2    -1.37500     0.79386    -2.24537
    12   2     5.50000    -0.00000     0.00000
    13   2     2.75000     4.76314     0.00000
    14   2    -2.75000     4.76314     0.00000
    15   2    -5.50000    -0.00000     0.00000
    16   2    -2.75000    -4.76314     0.00000
    17   2     2.75000    -4.76314     0.00000
    18   2     2.75000    -1.58771     4.49073
    19   1     0.00000     3.17543     4.49073
    20   2    -2.75000    -1.58771     4.49073
    21   1     0.00000    -3.17543    -4.49073
    22   2    -2.75000     1.58771    -4.49073
    23   1     4.12500    -0.79386     2.24537
    24   3     4.12500     0.79386    -2.24537
    25   2     0.00000     4.76314     0.00000
    26   2     2.75000     3.17543    -2.24537
    27   2    -4.12500     2.38157     0.00000
    28   2    -1.37500     3.96928     2.24537
    29   2    -2.75000     3.17543    -2.24537
    30   1    -4.12500    -2.38157     0.00000
    31   2    -4.12500     0.79386    -2.24537
    32   2     0.00000    -4.76314     0.00000
    33   2    -1.37500    -3.96928    -2.24537
    34   2     4.12500    -2.38157     0.00000
    35   2     2.75000    -3.17543     2.24537
    36   2     1.37500    -3.96928    -2.24537
    37   2     1.37500     0.79386     4.49073
    38   2     0.00000    -1.58771     4.49073
    39   1    -1.37500     0.79386     4.49073
    40   2     1.37500    -0.79386    -4.49073
    41   2    -1.37500    -0.79386    -4.49073
    42   2     0.00000     1.58771    -4.49073
    43   2     2.75000     1.58771     2.24537
    44   2     0.00000     3.17543    -2.24537
    45   2    -2.75000     1.58771     2.24537
    46   2    -2.75000    -1.58771    -2.24537
    47   2     0.00000    -3.17543     2.24537
    48   2     2.75000    -1.58771    -2.24537
    49   1     8.25000    -0.00000     0.00000
    50   2     4.12500     7.14471     0.00000
    51   2    -8.25000    -0.00000     0.00000
    52   2    -4.12500    -7.14471     0.00000
    53   2     4.12500    -7.14471     0.00000
    54   1     0.00000     4.76314     6.73610
    55   2    -4.12500    -2.38157     6.73610
    56   2     4.12500     2.38157    -6.73610
    57   2    -4.12500     2.38157    -6.73610
    58   3     6.87500     2.38157     0.00000
    59   2     6.87500     0.79386    -2.24537
    60   2     1.37500     7.14471     0.00000
    61   2     2.75000     6.35085     2.24537
    62   2    -5.50000     4.76314     0.00000
    63   2    -2.75000     6.35085     2.24537
    64   3    -4.12500     5.55700    -2.24537
    65   1    -6.87500    -2.38157     0.00000
    66   2    -6.87500    -0.79386     2.24537
    67   2    -1.37500    -7.14471     0.00000
    68   2    -4.12500    -5.55700     2.24537
    69   2    -2.75000    -6.35085    -2.24537
    70   1     5.50000    -4.76314     0.00000
    71   2     2.75000    -6.35085    -2.24537
    72   2     2.75000    -0.00000     6.73610
    73   2     1.37500    -2.38157     6.73610
    74   2    -1.37500     2.38157     6.73610
    75   3     1.37500    -2.38157    -6.73610
    76   2    -1.37500    -2.38157    -6.73610
    77   2     5.50000     4.76314     0.00000
    78   2     5.50000    -1.58771     4.49073
    79   2     5.50000     1.58771    -4.49073
    80   2    -1.37500     7.14471     0.00000
    81   2     1.37500     5.55700     4.49073
    82   2    -6.87500     2.38157     0.00000
    83   1    -4.12500     3.96928    -4.49073
    84   2    -5.50000    -4.76314     0.00000
    85   2    -5.50000    -1.58771     4.49073
    86   2    -5.50000     1.58771    -4.49073
    87   2     1.37500    -7.14471     0.00000
    88   2    -4.12500    -3.96928     4.49073
    89   2    -1.37500    -5.55700    -4.49073
    90   2     6.87500    -2.38157     0.00000
    91   2     4.12500    -3.96928     4.49073
    92   2     1.37500     2.38157     6.73610
    93   2    -1.37500    -2.38157     6.73610
    94   2    -2.75000    -0.00000    -6.73610
    95   2    -1.37500     2.38157    -6.73610
    96   2     0.00000     6.35085     2.24537
    97   2    -5.50000     3.17543    -2.24537
    98   2     0.00000    -6.35085    -2.24537
    99   2     5.50000    -3.17543     2.24537
   100   2     0.00000    -0.00000     6.73610
   101   2     0.00000    -0.00000    -6.73610
   102   2     5.50000     1.58771     2.24537
   103   2     1.37500     5.55700    -2.24537
   104   2    -4.12500     3.96928     2.24537
   105   2    -1.37500    -5.55700     2.24537
   106   2     4.12500    -3.96928    -2.24537
   107   2     1.37500     3.96928    -4.49073
   108   2    -2.75000     3.17543     4.49073
   109   2    -4.12500    -0.79386    -4.49073
   110   2    -1.37500    -3.96928     4.49073
   111   2     4.12500     3.96928     2.24537
   112   2    -4.12500    -3.96928    -2.24537
   113   3     1.37500    -5.55700     2.24537
   114   2     5.50000    -1.58771    -2.24537
   115   2    -1.37500     3.96928    -4.49073
   116   2    -4.12500     0.79386     4.49073
   117   2    -2.75000    -3.17543    -4.49073
   118   1     1.37500    -3.96928     4.49073
   119   2     4.12500    -0.79386    -4.49073
   120   2    11.00000    -0.00000     0.00000
   121   2     5.50000     9.52628     0.00000
   122   2    -5.50000     9.52628     0.00000
   123   2   -11.00000    -0.00000     0.00000
   124   2    -5.50000    -9.52628     0.00000
   125   2     5.50000    -9.52628     0.00000
   126   2     5.50000    -3.17543     8.98146
   127   2     0.00000     6.35085     8.98146
   128   2    -5.50000    -3.17543     8.98146
   129   2     0.00000    -6.35085    -8.98146
   130   2     5.50000     3.17543    -8.98146
   131   2     9.62500     2.38157     0.00000
   132   2     9.62500     0.79386    -2.24537
   133   2     2.75000     9.52628     0.00000
   134   2     5.50000     7.93857    -2.24537
   135   2    -6.87500     7.14471     0.00000
   136   2    -4.12500     8.73242     2.24537
   137   2    -5.50000     7.93857    -2.24537
   138   2    -9.62500    -2.38157     0.00000
   139   3    -9.62500    -0.79386     2.24537
   140   2    -9.62500     0.79386    -2.24537
   141   2    -2.75000    -9.52628     0.00000
   142   2    -5.50000    -7.93857     2.24537
   143   1     4.12500    -0.79386     8.98146
   144   2     1.37500    -3.96928    -8.98146
   145   2    -1.37500    -3.96928    -8.98146
   146   2     2.75000     3.17543    -8.98146
   147   2     8.25000     4.76314     0.00000
   148   2     8.25000    -1.58771     4.49073
   149   2     0.00000     9.52628     0.00000
   150   2     2.75000     7.93857     4.49073
   151   2     5.50000     6.35085    -4.49073
   152   2    -8.25000     4.76314     0.00000
   153   2    -2.75000     7.93857     4.49073
   154   2    -8.25000    -4.76314     0.00000
   155   2    -8.25000    -1.58771     4.49073
   156   2    -8.25000     1.58771    -4.49073
   157   2     0.00000    -9.52628     0.00000
   158   1    -5.50000    -6.35085     4.49073
   159   2    -2.75000    -7.93857    -4.49073
   160   2     8.25000    -4.76314     0.00000
   161   2     5.50000    -6.35085     4.49073
   162   2     2.75000    -7.93857    -4.49073
   163   2     2.75000     1.58771     8.98146
   164   3     0.00000    -3.17543     8.98146
   165   2    -2.75000     1.58771     8.98146
   166   2     2.75000    -1.58771    -8.98146
   167   2    -2.75000    -1.58771    -8.98146
   168   2     0.00000     3.17543    -8.98146
   169   1     6.87500     7.14471     0.00000
   170   2     6.87500     2.38157    -6.73610
   171   2    -2.75000     9.52628     0.00000
   172   2     1.37500     7.14471     6.73610
   173   2    -5.50000     4.76314    -6.73610
   174   2    -6.87500    -7.14471     0.00000
   175   2    -6.87500    -2.38157     6.73610
   176   2    -6.87500     2.38157    -6.73610
   177   2     2.75000    -9.52628     0.00000
   178   1    -5.50000    -4.76314     6.73610
   179   2    -1.37500    -7.14471    -6.73610
   180   1     9.62500    -2.38157     0.00000
   181   1     5.50000    -4.76314     6.73610
   182   2     1.37500     3.96928     8.98146
   183   2    -2.75000    -3.17543     8.98146
   184   2    -4.12500    -0.79386     8.98146
   185   2    -4.12500     0.79386    -8.98146
   186   2    -2.75000     3.17543    -8.98146
   187   2     8.25000     3.17543    -2.24537
   188   2     1.37500     8.73242     2.24537
   189   2    -6.87500     5.55700    -2.24537
   190   2    -8.25000    -3.17543     2.24537
   191   2    -1.37500    -8.73242    -2.24537
   192   2     6.87500    -5.55700     2.24537
   193   2     1.37500    -0.79386     8.98146
   194   2     6.87500     3.96928    -4.49073
   195   2     0.00000     7.93857     4.49073
   196   2    -6.87500     3.96928    -4.49073
   197   2    -6.87500    -3.96928     4.49073
   198   2     6.87500    -3.96928     4.49073
   199   2    -1.37500    -0.79386     8.98146
   200   2     8.25000     1.58771     2.24537
   201   2     2.75000     7.93857    -2.24537
   202   2    -8.25000    -1.58771    -2.24537
   203   2    -2.75000    -7.93857     2.24537
   204   2     5.50000    -6.35085    -2.24537
   205   2     6.87500     0.79386     4.49073
   206   2     2.75000     6.35085    -4.49073
   207   2    -4.12500     5.55700     4.49073
   208   2    -6.87500    -0.79386    -4.49073
   209   2    -2.75000    -6.35085     4.49073
   210   2     4.12500    -5.55700    -4.49073
   211   2     5.50000    -0.00000     6.73610
   212   2     2.75000     4.76314    -6.73610
   213   2    -2.75000     4.76314     6.73610
   214   1    -5.50000    -0.00000    -6.73610
   215   1    -2.75000    -4.76314     6.73610
   216   2     2.75000    -4.76314    -6.73610
   217   1     6.87500     5.55700    -2.24537
   218   2    -1.37500     8.73242     2.24537
   219   2    -8.25000     3.17543    -2.24537
   220   2    -6.87500    -5.55700     2.24537
   221   2     1.37500    -8.73242    -2.24537
   222   2     1.37500     0.79386    -8.98146
   223   2     6.87500     3.96928     2.24537
   224   2    -6.87500     3.96928     2.24537
   225   2     0.00000    -7.93857     2.24537
   226   2     6.87500    -3.96928    -2.24537
   227   2     5.50000     3.17543     4.49073
   228   2    -5.50000     3.17543     4.49073
   229   2    -5.50000    -3.17543    -4.49073
   230   2     0.00000    -6.35085     4.49073
   231   1     4.12500     2.38157     6.73610
   232   2     0.00000     4.76314    -6.73610
   233   1    -4.12500     2.38157     6.73610
   234   2    -4.12500    -2.38157    -6.73610
   235   2     4.12500    -2.38157    -6.73610
   236   3    -2.75000     7.93857    -2.24537
   237   2    -8.25000     1.58771     2.24537
   238   2    -5.50000    -6.35085    -2.24537
   239   3     2.75000    -7.93857     2.24537
   240   2     8.25000    -1.58771    -2.24537
   241   2     4.12500     5.55700     4.49073
   242   2    -2.75000     6.35085    -4.49073
   243   2    -6.87500     0.79386     4.49073
   244   2     2.75000    -6.35085     4.49073
   245   2     6.87500    -0.79386    -4.49073
   246   2     2.75000     4.76314     6.73610
   247   2    -2.75000     4.76314    -6.73610
   248   2    -5.50000    -0.00000     6.73610
   249   2    -2.75000    -4.76314    -6.73610
   250   2     2.75000    -4.76314     6.73610
   251   2     5.50000    -0.00000    -6.73610
   252   2    13.75000    -0.00000     0.00000
   253   2     6.87500    11.90785     0.00000
   254   2    -6.87500    11.90785     0.00000
   255   1   -13.75000    -0.00000     0.00000
   256   3    -6.87500   -11.90785     0.00000
   257   2     6.87500   -11.90785     0.00000
   258   2     6.87500    -3.96928    11.22683
   259   2     0.00000     7.93857    11.22683
   260   2    -6.87500    -3.96928    11.22683
   261   2     0.00000    -7.93857   -11.22683
   262   2     6.87500     3.96928   -11.22683
   263   2    -6.87500     3.96928   -11.22683
   264   3    12.37500     2.38157     0.00000
   265   2    12.37500    -0.79386     2.24537
   266   2    12.37500     0.79386    -2.24537
   267   2     4.12500    11.90785     0.00000
   268   2     5.50000    11.11399     2.24537
   269   2     6.87500    10.32014    -2.24537
   270   2    -8.25000     9.52628     0.00000
   271   2    -5.50000    11.11399     2.24537
   272   2    -6.87500    10.32014    -2.24537
   273   2   -12.37500    -2.38157     0.00000
   274   2   -12.37500    -0.79386     2.24537
   275   2   -12.37500     0.79386    -2.24537
   276   2    -4.12500   -11.90785     0.00000
   277   1    -6.87500   -10.32014     2.24537
   278   2    -5.50000   -11.11399    -2.24537
   279   2     8.25000    -9.52628     0.00000
   280   2     6.87500   -10.32014     2.24537
   281   2     5.50000   -11.11399    -2.24537
   282   2    -1.37500     5.55700    11.22683
   283   2     4.12500     3.96928   -11.22683
   284   2    11.00000     4.76314     0.00000
   285   2    11.00000    -1.58771     4.49073
   286   2    11.00000     1.58771    -4.49073
   287   2     4.12500    10.32014     4.49073
   288   3     6.87500     8.73242    -4.49073
   289   2    -9.62500     7.14471     0.00000
   290   2    -4.12500    10.32014     4.49073
   291   2    -6.87500     8.73242    -4.49073
   292   2   -11.00000    -1.58771     4.49073
   293   2    -1.37500   -11.90785     0.00000
   294   1    -6.87500    -8.73242     4.49073
   295   2     4.12500   -10.32014    -4.49073
   296   2     4.12500     0.79386    11.22683
   297   2     1.37500    -3.96928    11.22683
   298   2    -2.75000    -3.17543   -11.22683
   299   2     1.37500     3.96928   -11.22683
   300   2     9.62500     7.14471     0.00000
   301   3     9.62500     2.38157    -6.73610
   302   2    -1.37500    11.90785     0.00000
   303   2     2.75000     9.52628     6.73610
   304   2     6.87500     7.14471    -6.73610
   305   2    -2.75000     9.52628     6.73610
   306   2    -6.87500     7.14471    -6.73610
   307   3    -9.62500    -7.14471     0.00000
   308   1    -9.62500    -2.38157     6.73610
   309   2    -9.62500     2.38157    -6.73610
   310   2     1.37500   -11.90785     0.00000
   311   2    -6.87500    -7.14471     6.73610
   312   2    -2.75000    -9.52628    -6.73610
   313   2    11.00000    -4.76314     0.00000
   314   2     6.87500    -7.14471     6.73610
   315   2     2.75000    -9.52628    -6.73610
   316   2    -1.37500    -3.96928    11.22683
   317   2    -4.12500     0.79386    11.22683
   318   2     4.12500    -0.79386   -11.22683
   319   2    -1.37500     3.96928   -11.22683
   320   2     8.25000     9.52628     0.00000
   321   2     8.25000    -3.17543     8.98146
   322   1     8.25000     3.17543    -8.98146
   323   2     1.37500     8.73242     8.98146
   324   2     6.87500     5.55700    -8.98146
   325   2   -12.37500     2.38157     0.00000
   326   2    -1.37500     8.73242     8.98146
   327   2    -6.87500     5.55700    -8.98146
   328   2    -8.25000    -9.52628     0.00000
   329   2    -8.25000    -3.17543     8.98146
   330   2    -8.25000     3.17543    -8.98146
   331   2     4.12500   -11.90785     0.00000
   332   2    -6.87500    -5.55700     8.98146
   333   2    12.37500    -2.38157     0.00000
   334   2     6.87500    -5.55700     8.98146
   335   2     1.37500     5.55700    11.22683
   336   2    -5.50000    -1.58771    11.22683
   337   2     5.50000     1.58771   -11.22683
   338   1    -5.50000     1.58771   -11.22683
   339   2    11.00000     3.17543    -2.24537
   340   2    -8.25000     7.93857    -2.24537
   341   2   -11.00000    -3.17543     2.24537
   342   3    -2.75000   -11.11399    -2.24537
   343   3     2.75000    -1.58771    11.22683
   344   2     0.00000    -3.17543   -11.22683
   345   3     9.62500     3.96928    -4.49073
   346   2     1.37500    10.32014     4.49073
   347   2    -8.25000     6.35085    -4.49073
   348   3    -9.62500    -3.96928     4.49073
   349   2    -1.37500   -10.32014    -4.49073
   350   2     0.00000    -1.58771    11.22683
   351   3    -1.37500    -0.79386   -11.22683
   352   2     0.00000     9.52628     6.73610
   353   2    -8.25000     4.76314    -6.73610
   354   2    -8.25000    -4.76314     6.73610
   355   2     0.00000    -9.52628    -6.73610
   356   2     8.25000    -4.76314     6.73610
   357   2    -2.75000    -1.58771    11.22683
   358   2    -2.75000     1.58771   -11.22683
   359   3    11.00000     1.58771     2.24537
   360   3     4.12500    10.32014    -2.24537
   361   2    -6.87500     8.73242     2.24537
   362   2   -11.00000    -1.58771    -2.24537
   363   2    -4.12500   -10.32014     2.24537
   364   2     6.87500    -8.73242    -2.24537
   365   1     9.62500     0.79386     4.49073
   366   2     4.12500     8.73242    -4.49073
   367   2    -5.50000     7.93857     4.49073
   368   2    -4.12500    -8.73242     4.49073
   369   3     5.50000    -7.93857    -4.49073
   370   2    -8.25000    -0.00000    -6.73610
   371   2    -4.12500    -7.14471     6.73610
   372   3     4.12500    -7.14471    -6.73610
   373   2     6.87500    -0.79386     8.98146
   374   2     4.12500     5.55700    -8.98146
   375   2    -2.75000     6.35085     8.98146
   376   2    -6.87500     0.79386    -8.98146
   377   2    -4.12500    -5.55700     8.98146
   378   2     2.75000    -6.35085    -8.98146
   379   1     9.62500     5.55700    -2.24537
   380   2     0.00000    11.11399     2.24537
   381   2    -9.62500     5.55700    -2.24537
   382   1    -9.62500    -5.55700     2.24537
   383   2     0.00000   -11.11399    -2.24537
   384   2     1.37500     0.79386    11.22683
   385   2     1.37500    -0.79386   -11.22683
   386   2     8.25000     6.35085    -4.49073
   387   1    -1.37500    10.32014     4.49073
   388   3    -9.62500     3.96928    -4.49073
   389   2     1.37500   -10.32014    -4.49073
   390   2     9.62500    -3.96928     4.49073
   391   2     0.00000     1.58771   -11.22683
   392   2     9.62500     3.96928     2.24537
   393   2     1.37500    10.32014    -2.24537
   394   2    -8.25000     6.35085     2.24537
   395   2    -9.62500    -3.96928    -2.24537
   396   3    -1.37500   -10.32014     2.24537
   397   2     8.25000    -6.35085    -2.24537
   398   2     8.25000     3.17543     4.49073
   399   2     1.37500     8.73242    -4.49073
   400   2    -6.87500     5.55700     4.49073
   401   2    -8.25000    -3.17543    -4.49073
   402   2    -1.37500    -8.73242     4.49073
   403   1     6.87500    -5.55700    -4.49073
   404   2     6.87500     2.38157     6.73610
   405   2     1.37500     7.14471    -6.73610
   406   2    -5.50000     4.76314     6.73610
   407   2    -6.87500    -2.38157    -6.73610
   408   2    -1.37500    -7.14471     6.73610
   409   2     5.50000    -4.76314    -6.73610
   410   2     5.50000     1.58771     8.98146
   411   2    -4.12500     3.96928     8.98146
   412   2    -5.50000    -1.58771    -8.98146
   413   2    -1.37500    -5.55700     8.98146
   414   2     4.12500    -3.96928    -8.98146
   415   2     8.25000     7.93857    -2.24537
   416   2   -11.00000     3.17543    -2.24537
   417   2     2.75000   -11.11399    -2.24537
   418   2    11.00000    -3.17543     2.24537
   419   2     0.00000     3.17543    11.22683
   420   2     2.75000     1.58771   -11.22683
   421   2     8.25000     6.35085     2.24537
   422   2    -1.37500    10.32014    -2.24537
   423   2    -9.62500     3.96928     2.24537
   424   2    -8.25000    -6.35085    -2.24537
   425   2     1.37500   -10.32014     2.24537
   426   3     9.62500    -3.96928    -2.24537
   427   2     6.87500     5.55700     4.49073
   428   2    -1.37500     8.73242    -4.49073
   429   2    -8.25000     3.17543     4.49073
   430   2    -6.87500    -5.55700    -4.49073
   431   2     1.37500    -8.73242     4.49073
   432   2    -6.87500     2.38157     6.73610
   433   2    -5.50000    -4.76314    -6.73610
   434   2     1.37500    -7.14471     6.73610
   435   2     6.87500    -2.38157    -6.73610
   436   2     4.12500     3.96928     8.98146
   437   1    -1.37500     5.55700    -8.98146
   438   2    -5.50000     1.58771     8.98146
   439   2    -4.12500    -3.96928    -8.98146
   440   2     1.37500    -5.55700     8.98146
   441   2     5.50000    -1.58771    -8.98146
   442   3     6.87500     8.73242     2.24537
   443   2    -4.12500    10.32014    -2.24537
   444   2   -11.00000     1.58771     2.24537
   445   2    -6.87500    -8.73242    -2.24537
   446   2     4.12500   -10.32014     2.24537
   447   2    11.00000    -1.58771    -2.24537
   448   2     5.50000     7.93857     4.49073
   449   2    -4.12500     8.73242    -4.49073
   450   2    -5.50000    -7.93857    -4.49073
   451   2     4.12500    -8.73242     4.49073
   452   2     9.62500    -0.79386    -4.49073
   453   3     4.12500     7.14471     6.73610
   454   2    -4.12500     7.14471    -6.73610
   455   2    -8.25000    -0.00000     6.73610
   456   2    -4.12500    -7.14471    -6.73610
   457   2     4.12500    -7.14471     6.73610
   458   2     2.75000     6.35085     8.98146
   459   2    -4.12500     5.55700    -8.98146
   460   2    -6.87500    -0.79386     8.98146
   461   2    -2.75000    -6.35085    -8.98146
   462   2     4.12500    -5.55700     8.98146
   463   1     6.87500     0.79386    -8.98146
   464   3    16.50000    -0.00000     0.00000
   465   2     8.25000    14.28942     0.00000
   466   2    -8.25000    14.28942     0.00000
   467   2    -8.25000   -14.28942     0.00000
   468   2     8.25000    -4.76314    13.47219
   469   2     0.00000     9.52628    13.47219
   470   1    -8.25000    -4.76314    13.47219
   471   1     0.00000    -9.52628   -13.47219
   472   2     8.25000     4.76314   -13.47219
   473   2    -8.25000     4.76314   -13.47219
   474   2    15.12500     2.38157     0.00000
   475   1    15.12500    -0.79386     2.24537
   476   1     5.50000    14.28942     0.00000
   477   2     6.87500    13.49556     2.24537
   478   3     8.25000    12.70171    -2.24537
   479   2    -9.62500    11.90785     0.00000
   480   2    -6.87500    13.49556     2.24537
   481   2    -8.25000    12.70171    -2.24537
   482   2   -15.12500    -2.38157     0.00000
   483   2   -15.12500    -0.79386     2.24537
   484   3   -15.12500     0.79386    -2.24537
   485   2    -5.50000   -14.28942     0.00000
   486   2    -8.25000   -12.70171     2.24537
   487   1    -6.87500   -13.49556    -2.24537
   488   2     9.62500   -11.90785     0.00000
   489   2     6.87500   -13.49556    -2.24537
   490   2     5.50000    -4.76314    13.47219
   491   2    -1.37500     7.14471    13.47219
   492   2     1.37500    -7.14471   -13.47219
   493   2    -1.37500    -7.14471   -13.47219
   494   2    13.75000     4.76314     0.00000
   495   2    13.75000    -1.58771     4.49073
   496   2    13.75000     1.58771    -4.49073
   497   2     2.75000    14.28942     0.00000
   498   2     5.50000    12.70171     4.49073
   499   2     8.25000    11.11399    -4.49073
   500   2   -11.00000     9.52628     0.00000
   501   1    -5.50000    12.70171     4.49073
   502   2    -8.25000    11.11399    -4.49073
   503   2   -13.75000    -4.76314     0.00000
   504   2   -13.75000    -1.58771     4.49073
   505   2   -13.75000     1.58771    -4.49073
   506   2    -2.75000   -14.28942     0.00000
   507   2    -8.25000   -11.11399     4.49073
   508   1    -5.50000   -12.70171    -4.49073
   509   2    11.00000    -9.52628     0.00000
   510   2     8.25000   -11.11399     4.49073
   511   2     5.50000   -12.70171    -4.49073
   512   1     5.50000    -0.00000    13.47219
   513   2     2.75000    -4.76314    13.47219
   514   2    -2.75000     4.76314    13.47219
   515   2     2.75000    -4.76314   -13.47219
   516   2     2.75000     4.76314   -13.47219
   517   2    12.37500     7.14471     0.00000
   518   2    12.37500    -2.38157     6.73610
   519   2    12.37500     2.38157    -6.73610
   520   2     4.12500    11.90785     6.73610
   521   2     8.25000     9.52628    -6.73610
   522   1   -12.37500     7.14471     0.00000
   523   2    -4.12500    11.90785     6.73610
   524   2    -8.25000     9.52628    -6.73610
   525   2   -12.37500    -7.14471     0.00000
   526   2   -12.37500     2.38157    -6.73610
   527   2    -8.25000    -9.52628     6.73610
   528   2    -4.12500   -11.90785    -6.73610
   529   2     8.25000    -9.52628     6.73610
   530   2     4.12500   -11.90785    -6.73610
   531   2     4.12500     2.38157    13.47219
   532   2     0.00000    -4.76314    13.47219
   533   2    -4.12500     2.38157    13.47219
   534   2     4.12500    -2.38157   -13.47219
   535   2    -4.12500    -2.38157   -13.47219
   536   2     0.00000     4.76314   -13.47219
   537   2    11.00000     9.52628     0.00000
   538   2    11.00000    -3.17543     8.98146
   539   2    11.00000     3.17543    -8.98146
   540   2    -2.75000    14.28942     0.00000
   541   1     2.75000    11.11399     8.98146
   542   1   -13.75000     4.76314     0.00000
   543   2    -2.75000    11.11399     8.98146
   544   3    -8.25000     7.93857    -8.98146
   545   2   -11.00000    -3.17543     8.98146
   546   2   -11.00000     3.17543    -8.98146
   547   3     2.75000   -14.28942     0.00000
   548   2    -8.25000    -7.93857     8.98146
   549   2    -2.75000   -11.11399    -8.98146
   550   1    13.75000    -4.76314     0.00000
   551   2     8.25000    -7.93857     8.98146
   552   2     2.75000   -11.11399    -8.98146
   553   3     2.75000     4.76314    13.47219
   554   1    -2.75000    -4.76314    13.47219
   555   2    -5.50000    -0.00000    13.47219
   556   2     5.50000    -0.00000   -13.47219
   557   2    -5.50000    -0.00000   -13.47219
   558   2    -2.75000     4.76314   -13.47219
   559   2     9.62500    11.90785     0.00000
   560   3     9.62500    -3.96928    11.22683
   561   2     9.62500     3.96928   -11.22683
   562   2    -5.50000    14.28942     0.00000
   563   2     1.37500    10.32014    11.22683
   564   1   -15.12500     2.38157     0.00000
   565   1    -8.25000     6.35085   -11.22683
   566   2    -9.62500   -11.90785     0.00000
   567   2    -9.62500    -3.96928    11.22683
   568   1    -9.62500     3.96928   -11.22683
   569   2     5.50000   -14.28942     0.00000
   570   2    -1.37500   -10.32014   -11.22683
   571   2    15.12500    -2.38157     0.00000
   572   2     8.25000    -6.35085    11.22683
   573   2     1.37500   -10.32014   -11.22683
   574   1    -5.50000    -4.76314    13.47219
   575   2     6.87500     2.38157   -13.47219
   576   2    -6.87500     2.38157   -13.47219
   577   2    -5.50000     4.76314   -13.47219
   578   2    13.75000     3.17543    -2.24537
   579   2     4.12500    13.49556     2.24537
   580   2    -9.62500    10.32014    -2.24537
   581   3   -13.75000    -3.17543     2.24537
   582   2    -4.12500   -13.49556    -2.24537
   583   2     9.62500   -10.32014     2.24537
   584   2     4.12500    -2.38157    13.47219
   585   2     0.00000    -4.76314   -13.47219
   586   2    12.37500     3.96928    -4.49073
   587   2     2.75000    12.70171     4.49073
   588   2    -9.62500     8.73242    -4.49073
   589   2   -12.37500    -3.96928     4.49073
   590   2    -2.75000   -12.70171    -4.49073
   591   2     9.62500    -8.73242     4.49073
   592   2     1.37500    -2.38157    13.47219
   593   2    -1.37500    -2.38157   -13.47219
   594   2    11.00000     4.76314    -6.73610
   595   2     1.37500    11.90785     6.73610
   596   2    -9.62500     7.14471    -6.73610
   597   2   -11.00000    -4.76314     6.73610
   598   2    -1.37500   -11.90785    -6.73610
   599   2     9.62500    -7.14471     6.73610
   600   2    -1.37500    -2.38157    13.47219
   601   2    -2.75000    -0.00000   -13.47219
   602   2     9.62500     5.55700    -8.98146
   603   2     0.00000    11.11399     8.98146
   604   2    -9.62500     5.55700    -8.98146
   605   2    -9.62500    -5.55700     8.98146
   606   2     0.00000   -11.11399    -8.98146
   607   2     9.62500    -5.55700     8.98146
   608   1    -4.12500    -2.38157    13.47219
   609   2    -4.12500     2.38157   -13.47219
   610   2    13.75000     1.58771     2.24537
   611   2     5.50000    12.70171    -2.24537
   612   2    -8.25000    11.11399     2.24537
   613   2   -13.75000    -1.58771    -2.24537
   614   2    -5.50000   -12.70171     2.24537
   615   3     8.25000   -11.11399    -2.24537
   616   3    12.37500     0.79386     4.49073
   617   2    -6.87500    10.32014     4.49073
   618   2   -12.37500    -0.79386    -4.49073
   619   1    -5.50000   -11.11399     4.49073
   620   1     6.87500   -10.32014    -4.49073
   621   2    11.00000    -0.00000     6.73610
   622   1     5.50000     9.52628    -6.73610
   623   2    -5.50000     9.52628     6.73610
   624   2   -11.00000    -0.00000    -6.73610
   625   2    -5.50000    -9.52628     6.73610
   626   2     5.50000    -9.52628    -6.73610
   627   2     9.62500    -0.79386     8.98146
   628   2    -5.50000    -7.93857     8.98146
   629   2     4.12500    -8.73242    -8.98146
   630   2     8.25000    -1.58771    11.22683
   631   2    -2.75000     7.93857    11.22683
   632   2    -8.25000     1.58771   -11.22683
   633   2    -5.50000    -6.35085    11.22683
   634   2     2.75000    -7.93857   -11.22683