2678
 Atoms. Timestep: 6000
2 -0.153587 0.108808 0.0715041
2 2.50875 0.175454 -0.0421303
2 1.23783 2.48306 0.146834
1 -1.51832 2.35818 -0.0758472
3 -3.01851 -0.0595807 0.0179098
2 -1.43858 -2.28791 0.122171
2 1.29107 -2.32687 0.00375866
2 1.26548 -0.720026 2.25806
2 -0.082302 1.53324 2.26267
2 -0.0673397 -1.62175 -2.05631
2 -1.49131 0.721322 -2.14068
2 5.40316 0.168903 -0.05121
2 2.67884 4.67467 0.342502
2 -2.73429 4.65866 0.147934
2 -5.53634 -0.21531 0.0989867
2 -2.67273 -4.74011 0.126733
2 2.78239 -4.55041 0.113954
2 2.6943 -1.8023 4.50959
1 0.004151 3.16019 4.63922
2 -2.57673 -1.90793 4.32076
1 -0.163099 -3.30523 -4.46502
2 2.54006 1.48461 -4.29826
2 -2.99732 1.48816 -4.42438
2 4.13138 2.43195 -0.0572673
1 4.05184 -0.802318 2.25269
3 3.92235 1.00658 -2.17891
2 -0.0972357 4.84105 -0.0232709
2 2.58272 3.16446 -2.29022
2 -4.19485 2.28286 0.0765155
2 -1.13959 3.98212 2.31134
2 -2.8031 3.17392 -2.05492
1 -4.1827 -2.28717 -0.162031
2 -4.26483 -0.796345 2.17192
2 -4.22791 0.637277 -2.16332
2 -0.0747762 -4.56391 0.302688
2 -2.82126 -3.25392 2.09552
2 -1.54947 -4.12034 -2.26712
2 4.07943 -2.09166 0.138206
2 2.71337 -3.11992 2.18894
2 1.30502 -3.87137 -2.07462
2 1.25769 0.698025 4.45824
2 -0.0310222 -1.50663 4.44815
1 -1.31328 0.701217 4.26443
2 1.23039 -0.997701 -4.38229
2 -1.36416 -1.06101 -4.4711
2 -0.202306 1.59 -4.4495
2 -0.0085488 3.03972 -2.12026
2 -2.90206 1.33804 2.38533
2 -2.81709 -1.69771 -2.37704
2 -0.0065624 -3.06269 2.31829
2 2.68377 -1.31852 -2.15484
2 3.81895 6.8984 -0.104222
2 -4.15682 6.88515 0.121836
2 -8.13373 -0.11831 0.00888854
2 4.04289 -2.40046 6.66898
1 0.441254 5.09656 6.07798
2 -4.16423 -2.27091 6.68112
3 -0.0634195 -4.75939 -6.66681
2 3.9572 2.35769 -6.48879
2 -4.25025 2.28963 -6.66367
3 6.85237 2.45164 0.0641943
2 6.67618 -0.748794 2.25529
2 6.50209 0.826497 -2.26185
2 3.93855 5.52325 -2.38854
2 -5.50468 4.64745 0.0896494
2 -2.91944 6.30567 2.32332
3 -4.17414 5.39946 -2.04316
1 -6.94367 -2.52611 0.00643357
2 -6.91915 -0.938471 2.29235
2 -6.93967 0.641876 -2.10499
2 -1.35085 -6.98519 0.0935881
2 -3.82257 -5.52269 2.3577
2 -2.70614 -6.35801 -2.25543
1 4.50297 -7.17971 -0.0256056
2 4.21753 -5.6188 2.05601
2 2.76715 -6.11575 -2.24088
2 2.69902 0.0945982 6.75634
2 1.48602 -2.44032 6.79536
2 -1.57472 2.18522 6.61381
2 -1.49387 -2.51505 -6.69096
2 1.28882 2.53389 -6.36885
2 5.35875 -1.53774 4.45381
2 -1.45712 7.08476 -0.0283028
2 1.72173 5.73449 2.97709
1 5.02535 2.00963 -4.34031
2 -6.82425 2.19518 0.135095
2 -1.61372 5.72077 4.42681
1 -4.33869 4.16167 -4.42019
2 -5.34634 -4.77043 0.0566145
2 -5.39012 -1.71104 4.47707
2 -5.69145 1.42413 -4.5528
2 1.47925 -6.98413 0.155515
2 -4.20232 -3.99435 4.62727
2 -1.4026 -5.4582 -4.48813
2 6.7431 -2.41234 -0.0413395
2 4.19931 -3.855 4.3075
2 1.28731 -5.40926 -4.4289
2 1.17498 2.51236 6.84508
2 -1.26137 -2.20851 6.49893
2 2.53238 0.104476 -6.4934
2 -2.94237 0.0199599 -6.51155
2 -1.58629 2.32898 -6.67083
2 5.42133 3.18762 -2.06963
2 -5.43123 3.13646 -2.13364
2 0.104929 -6.31566 -2.16691
2 5.50478 -3.51309 1.90706
2 -0.0753911 -0.0104308 6.7343
2 -0.278336 -0.164989 -6.62604
2 5.35766 1.55856 2.19816
2 1.24496 5.38113 -2.01181
2 -4.23561 3.56999 2.27557
2 -5.49556 -1.71116 -2.23705
2 -1.21089 -5.38687 2.49722
2 4.03157 -3.76044 -1.998
2 3.97044 0.783606 4.24732
2 1.29359 4.01632 -4.24074
2 -2.66072 3.17616 4.29079
2 -4.06768 -1.03037 -4.44861
2 -1.02053 -3.93382 4.75422
2 2.73874 -3.10055 -4.56197
2 3.75656 3.7195 2.54128
2 -1.58434 5.66834 -2.1347
1 -5.44748 2.96618 4.36727
2 -4.1125 -4.05972 -2.1167
3 1.65804 -5.46375 2.16275
2 2.41461 3.23366 4.7457
2 -1.51202 3.95446 -4.20766
2 -3.8518 0.559686 4.51914
1 1.73366 -4.39847 4.4787
2 4.11605 -0.843989 -4.43576
2 10.7934 -0.0222574 0.0399005
2 5.30405 9.16516 0.0835871
2 -10.9067 -0.114378 0.00823245
2 -5.55357 -9.22218 0.188639
2 5.37006 -3.04733 8.99053
2 0.100792 6.19706 8.8783
2 -0.214288 -6.25495 -8.86139
2 5.30873 3.42257 -8.55616
2 -5.43248 3.2956 -8.84564
2 9.61541 2.35836 0.177258
2 9.57293 -0.787017 2.1311
2 9.21369 0.619729 -2.13176
2 2.76943 9.31556 0.0446134
2 3.8878 8.19038 2.19346
2 5.05781 7.79177 -2.20402
2 -6.71031 7.00321 0.0586297
2 -4.14506 8.68791 2.18919
2 -5.45489 7.50914 -2.46135
2 -9.7428 -2.36339 0.0297375
3 -9.43919 -0.712732 2.13665
2 -9.71389 0.657625 -2.16613
2 -2.72963 -9.42093 0.180865
2 -5.3882 -7.90686 2.38027
2 -4.11336 -8.66902 -2.00831
3 7.07524 -6.93894 0.0326667
2 5.62499 -7.8589 2.06617
2 4.26653 -8.34991 -2.15214
1 3.97736 -0.853375 8.93907
2 2.76249 -3.08013 9.09022
2 -1.20441 3.91967 8.71745
2 1.25807 -3.8932 -8.68354
2 -1.50014 -3.97187 -8.86306
2 2.55715 3.25728 -8.8266
2 7.73218 4.82882 -0.0960894
2 8.25363 -1.74286 4.30401
2 7.96626 1.47383 -4.39785
2 0.006443 9.35101 0.41681
2 2.8386 7.74919 4.5339
2 5.13447 6.28617 -4.50696
2 -8.31198 4.4258 -0.231658
2 -8.22591 -4.70078 0.137461
2 -8.20687 -1.65864 4.44818
2 -8.32767 1.52338 -4.27552
2 0.0579297 -9.28837 0.0718599
1 -5.60635 -6.29799 4.36865
2 -2.70172 -7.88925 -4.4088
2 8.27715 -4.57165 -0.0492589
2 2.65921 -7.81957 -4.48395
2 2.37735 1.58307 9.01816
2 -2.9467 1.76045 8.93928
2 2.57361 -1.56906 -8.78943
2 -2.72994 -1.45659 -9.11255
2 -0.0729634 3.10905 -8.61963
1 6.60856 6.9045 0.159088
2 6.59665 -2.37926 6.49031
2 6.68117 2.46746 -6.44146
2 -2.70479 9.41793 0.172306
2 1.61024 7.03148 6.87328
2 -9.60573 2.17516 -0.0584463
2 -1.18607 6.90464 6.7556
2 -5.57183 4.75763 -6.5603
2 -6.74513 -2.25966 6.64201
2 2.87948 -9.30744 0.0479747
1 -5.4672 -4.25182 7.14928
1 9.18616 -1.95658 -0.166852
1 5.49436 -4.90341 6.06041
2 1.39279 -6.90666 -6.70823
2 1.32601 4.06652 9.13084
2 -2.83965 -3.00409 8.90731
2 -4.26243 -0.680108 8.84748
2 3.90721 1.05593 -8.69541
2 -4.00329 0.897807 -8.98526
2 -2.67902 3.09593 -9.01461
2 8.04772 3.04711 -2.16833
2 1.38604 8.62668 2.43427
2 -8.41377 -3.34249 2.18478
2 -1.45384 -8.77559 -2.22389
2 6.96094 -5.60211 2.11169
2 1.2629 -0.882332 9.03481
2 -0.103884 -1.68974 -9.00827
2 6.70103 3.84012 -4.23333
2 -0.149046 7.81036 4.29929
2 -7.06384 4.03166 -4.15291
2 -7.01185 -4.04079 4.39524
2 0.0668547 -7.5926 -4.54087
2 6.91926 -3.96041 4.15533
3 -1.41007 0.777325 -8.81153
2 8.29129 1.54291 2.23542
2 -8.34418 -1.63237 -2.20308
2 -2.51397 -7.89595 2.46867
2 5.60777 -6.08867 -2.01074
2 6.60358 0.696581 4.55245
2 2.40241 6.39597 -4.25814
2 -4.16812 5.43079 4.50284
2 -6.89273 -0.911851 -4.47564
2 -2.52183 -6.13785 4.65466
2 3.91711 -5.62771 -4.40831
2 5.28141 -0.00923535 6.64677
2 -2.73117 4.60019 6.57612
1 -5.43516 -0.0545201 -6.65242
1 -2.82541 -4.60463 6.73907
2 2.59082 -4.71845 -6.62685
1 5.16591 4.81494 -0.0485832
2 -6.62126 -5.40216 2.2561
2 1.29549 -8.54893 -2.22226
2 8.27187 -3.09799 2.05193
2 -0.322525 1.62699 9.02475
2 1.25187 0.9224 -8.62821
2 6.73198 3.94335 2.19241
2 0.105753 7.80631 -1.91447
2 -7.14737 3.9648 2.11929
3 -6.89162 -3.99187 -2.09097
2 0.104904 -7.68366 2.27924
2 6.8528 -3.79523 -2.08235
2 5.37665 3.1175 4.50705
2 -5.46682 -3.28442 -4.39393
2 0.167122 -6.34007 4.61302
2 5.48602 -3.18063 -4.37053
1 3.85704 2.38474 6.82058
2 -0.199551 4.64392 -6.49591
1 -4.1129 2.32371 6.68663
2 0.116581 -4.96859 6.98996
2 4.13734 -2.22255 -6.76821
2 -8.23344 1.58913 2.25927
2 -5.57748 -6.20088 -2.1855
3 2.82291 -7.79216 2.15599
2 3.85359 5.53103 4.56105
2 -2.86494 6.35627 -4.20682
2 -6.92895 0.775667 4.43733
2 -4.16465 -5.5787 -4.41419
2 6.98331 -0.889181 -4.30933
2 2.8511 4.63747 6.83389
2 -3.00017 4.64713 -6.62252
2 -5.50957 0.0838869 6.76868
2 -2.70074 -4.85292 -6.62439
2 2.85327 -4.77777 6.70722
2 5.51861 0.0565955 -6.63501
2 13.3723 0.0891328 -0.308587
2 6.82408 11.488 -0.0478773
2 -6.78464 11.8991 0.0985084
3 -6.89782 -11.5599 -0.070442
2 6.90962 -11.6044 0.0394965
2 6.86359 -3.92098 11.0176
2 0.0955637 7.87607 11.2609
2 -6.90631 -3.7076 11.1833
2 0.14127 -7.82276 -11.1714
2 -6.74986 4.03808 -11.1954
3 12.1049 2.4146 0.169441
2 12.3999 -0.679138 2.12267
2 4.19892 11.6854 0.15067
2 5.41977 10.5237 2.32922
2 6.57386 10.0004 -2.19217
2 -8.27532 9.28913 -0.0953227
2 -5.26011 10.9703 2.18303
2 -6.59656 10.1085 -2.30511
2 -12.3289 -2.34574 -0.168291
2 -12.4605 0.626274 -2.29088
2 -4.22938 -11.7468 0.129793
1 -6.8535 -10.2055 2.29891
2 -5.46722 -11.0324 -2.26614
2 8.30258 -9.18785 -0.0590297
2 6.99514 -10.0001 2.03927
2 5.43832 -10.8608 -2.02974
2 5.33748 -1.58173 11.216
3 4.06317 -3.99263 11.1017
2 -1.26835 5.49697 11.2704
2 1.32656 -5.48471 -11.0858
2 -1.54973 -5.50326 -11.2308
2 4.19244 3.92373 -10.9516
2 10.9262 -1.52747 4.38987
2 10.9615 1.6388 -4.31923
2 1.38405 11.6689 0.1344
2 3.98231 10.1363 4.493
3 6.61627 8.48669 -4.32042
2 -9.43742 6.89893 -0.16397
2 -3.9299 10.2169 4.55159
2 -6.86175 8.51541 -4.34095
2 -10.8923 -4.76463 0.0249246
2 -10.8038 -1.52332 4.37611
2 -10.8907 1.4627 -4.5061
2 -1.32628 -11.7707 0.128893
1 -6.4274 -8.94816 4.34472
2 -3.94618 -10.1865 -4.30849
3 9.52266 -6.87134 -0.098362
2 6.93022 -8.57018 4.38994
2 4.08628 -10.1794 -4.51129
2 3.95741 0.703663 11.1534
2 1.36822 -3.8254 11.2237
2 -2.66826 3.29248 11.1279
2 2.77533 -3.07251 -10.9778
2 -2.65297 -3.04213 -11.149
2 1.24323 4.14456 -10.9733
2 9.57456 -2.35232 6.64321
3 9.5066 2.29749 -6.57498
2 -1.50528 11.8611 0.126012
2 2.91726 9.35157 6.75168
2 6.41505 7.04883 -6.70046
2 -10.8633 4.57917 -0.0691434
2 -2.56695 9.23031 6.54835
2 -7.03276 7.1377 -6.61492
3 -9.85314 -7.05136 -0.0753724
1 -9.5092 -2.33667 6.78143
2 1.2597 -11.6954 0.0482423
2 -6.57546 -6.67103 6.66612
2 -2.7598 -9.52719 -6.55727
2 10.8657 -4.58335 -0.102592
2 6.98124 -6.88799 6.51727
2 2.80006 -9.3392 -6.86872
3 2.65086 3.10021 11.1773
2 -1.58592 -3.5975 11.2543
2 -4.1062 1.16354 11.1873
2 3.96253 -0.732934 -10.9523
2 -4.16929 -0.711892 -11.1828
2 7.92789 9.06843 0.0235198
2 8.15923 -3.12058 8.86386
1 8.07902 3.24903 -8.80087
2 -4.18936 11.7669 -0.0232651
2 1.62813 8.36651 8.92815
2 6.64771 5.46246 -8.7328
2 -1.29967 8.50737 9.01641
2 -6.9862 5.62859 -8.89685
2 -8.20271 -9.36587 0.0428683
2 -8.05321 3.18435 -8.88308
2 4.08872 -11.6869 -0.0696146
2 -6.85699 -5.20508 9.01724
2 -1.44915 -8.47366 -8.81406
2 12.298 -2.30047 0.0170997
2 6.72138 -5.30833 8.70563
2 1.4402 -8.62601 -9.0031
2 1.56565 5.50911 11.2213
2 -5.68196 -1.16463 11.1062
2 5.29 1.44291 -10.9722
1 -5.55947 1.68462 -11.218
2 -3.89461 3.98255 -11.1259
2 10.7383 3.28969 -1.94691
2 2.68055 10.9394 2.26155
2 -8.12682 7.6978 -2.22915
2 -10.9046 -3.10084 2.1651
3 -2.79212 -10.9301 -2.12597
3 2.49002 -1.53807 11.1605
2 0.0531321 -3.11297 -11.2047
3 9.47032 3.68283 -4.27518
2 1.29594 10.2221 4.62491
3 -9.57753 -4.06652 4.46156
2 -1.2269 -10.0908 -4.43472
2 8.27382 -6.31049 4.271
3 -1.45997 -0.750042 -11.2987
1 8.05126 4.70131 -6.62025
2 0.150306 9.23866 6.74122
2 -8.22997 4.46037 -6.46581
2 -8.16177 -4.59949 6.77417
2 0.108505 -9.24915 -6.68542
2 8.15628 -4.5791 6.63525
2 -2.82045 -1.34817 10.9174
2 -2.80416 1.60916 -11.0527
3 10.9299 1.50407 2.30564
3 4.05858 10.3066 -2.18128
2 -6.93922 8.59022 2.20081
2 -11.0833 -1.63442 -2.28055
2 -3.96188 -10.0388 2.39434
2 6.8698 -8.39545 -2.06936
1 9.59652 1.05761 4.59386
2 3.93232 8.75197 -4.46121
2 -5.32888 7.8129 4.46229
2 -9.58392 -0.969717 -4.44904
2 -3.99653 -8.42093 4.62314
3 5.31783 -7.94399 -4.27636
2 8.18526 -0.130304 6.47989
2 3.59068 7.32107 -6.69119
2 -8.2035 -0.128792 -6.50644
2 -3.83044 -6.86786 6.7447
3 4.00406 -7.02654 -6.80965
2 6.7291 -0.85007 8.85935
2 3.86752 5.75775 -8.8547
2 -2.80938 6.02237 8.69184
2 -6.79053 0.702867 -8.77987
2 -4.10185 -5.50594 9.00152
2 2.54625 -6.26097 -8.95462
1 9.30943 5.31245 -2.27581
2 -0.0736933 11.0383 2.36955
2 -9.296 5.23941 -2.36833
1 -9.67339 -5.61307 2.21128
2 -0.0734799 -11.1077 -2.11387
2 9.66421 -5.4088 2.22553
2 1.21535 0.705875 11.3098
2 1.22675 -0.782148 -11.0734
2 7.89469 6.09637 -4.40659
1 -1.41076 10.1984 4.46726
3 -9.68045 3.93532 -4.48476
2 -8.2353 -6.1911 4.3166
2 1.38409 -10.1716 -4.54804
2 9.64219 -3.87208 4.4847
1 -0.188613 -1.26854 11.0583
2 -0.158666 1.60045 -10.9147
2 9.64583 4.05878 2.05218
2 1.48853 10.1956 -2.08295
2 -8.33642 6.43814 2.27829
3 -1.1162 -10.1033 2.23679
2 8.24049 -6.17735 -2.19044
2 8.13236 3.1865 4.39392
2 1.14877 8.72893 -4.49418
2 -6.73417 5.47148 4.20376
2 -8.25659 -3.20693 -4.22811
2 -1.36551 -8.54454 4.68232
1 6.8434 -5.43975 -4.3933
2 6.73529 2.22445 6.74027
2 0.967572 7.01619 -6.60292
2 -5.4751 4.75402 6.83742
2 -6.77294 -2.34155 -6.72758
2 5.35056 -4.53432 -6.62407
2 5.43445 1.49803 8.89278
2 1.10286 5.59156 -8.83249
2 -5.32306 -1.54178 -8.73427
2 -1.46024 -5.23517 8.944
2 7.76553 7.59678 -2.23501
2 -2.64136 11.0832 2.51138
2 -10.9077 3.0735 -2.33283
2 2.72941 -10.8576 -2.26335
2 10.8712 -2.97657 2.21026
2 -0.0356253 3.04576 11.3688
2 2.50339 1.77956 -10.9954
2 7.98647 6.30117 2.09966
2 -1.24048 10.1026 -1.98478
2 -9.70875 4.00532 2.20259
2 -8.21803 -6.18287 -2.10571
2 1.4712 -9.84384 2.297
3 9.37955 -3.57871 -2.10745
2 6.61295 5.58947 4.40234
2 -1.42414 8.68154 -4.49473
2 -8.16216 3.30529 4.49688
2 -6.6832 -5.50227 -4.44985
2 1.45347 -8.44673 4.4336
2 8.17744 -3.07079 -4.38673
2 5.60235 4.66285 6.81894
2 -1.72212 7.09953 -6.62083
2 -6.81632 2.4372 6.54267
2 -5.34908 -4.53672 -6.66745
2 6.97575 -2.37321 -6.6389
2 3.95586 4.03906 9.06223
1 -1.52873 5.68029 -8.72801
2 -5.53872 1.76306 8.91104
2 -4.06367 -4.04642 -8.95579
2 5.40272 -1.56758 -8.91153
2 -11.079 1.2985 2.14507
2 -6.76005 -8.53839 -2.02562
2 4.29428 -10.1462 2.13107
2 10.8946 -1.56135 -2.18717
2 5.35888 7.79119 4.36171
2 -4.19284 8.58043 -4.42787
2 -9.47931 0.897858 4.51269
2 -5.39094 -7.95829 -4.36416
2 4.24014 -8.43116 4.29473
2 9.48367 -0.69806 -4.3698
3 4.21984 6.98568 6.64256
2 -4.28333 7.16713 -6.53551
2 -8.27091 0.179352 6.52846
2 -4.13364 -7.11936 -6.61555
2 4.2367 -7.0167 6.72161
2 8.15085 -0.00226557 -6.50049
2 -4.2268 5.65403 -8.78711
2 -7.05474 -0.475921 8.76967
2 3.90895 -5.50772 8.8528
1 6.6741 0.716722 -8.86643
3 16.1406 -0.244306 -0.0263568
2 7.62074 13.9212 0.0716216
2 -8.14496 14.1319 0.0917735
2 -16.2032 -0.156425 -0.219697
2 -8.32458 -14.4301 0.316393
2 8.20905 -14.0851 0.0521259
2 8.12641 -4.81912 13.3103
2 0.259968 9.56563 13.6544
1 -6.95007 -2.00864 13.3126
1 1.21353 -11.5336 -13.4481
2 8.34247 4.66169 -13.0666
2 -8.32368 4.84418 -13.4028
2 14.8079 2.27065 -0.1733
1 15.023 -1.08693 2.13867
2 14.8305 0.622673 -2.34278
1 6.29198 15.5291 -1.4764
2 6.61317 12.8049 2.23495
3 8.04811 12.2985 -2.12482
2 -9.66607 11.6841 -0.011152
2 -6.7954 13.5142 2.27468
2 -8.32612 12.3778 -2.16852
2 -14.788 -2.50014 -0.196066
2 -14.9851 -0.763802 2.02316
3 -15.0906 0.625273 -2.55681
2 -5.51006 -14.0628 0.113567
2 -7.98149 -12.3968 2.18771
1 -6.91798 -13.3203 -2.22004
2 9.51286 -11.6782 0.138732
2 8.13646 -12.4558 2.23788
2 6.72762 -13.1367 -2.1531
2 6.76819 -2.49648 13.4395
2 5.27924 -4.73554 13.2131
2 -1.18563 7.06784 13.3753
2 1.6086 -6.92384 -13.3396
2 -1.12933 -7.16112 -13.5291
2 5.48167 4.78053 -13.003
2 12.351 4.87181 -0.0873231
2 13.4415 1.55852 -4.37638
2 2.78552 14.0287 0.187778
2 5.58579 12.3552 4.50063
2 8.07504 10.9264 -4.20667
2 -10.9446 9.43018 -0.0620047
1 -5.20404 12.3719 4.4452
2 -8.28355 10.8608 -4.35291
2 -13.5792 -4.9065 0.149104
2 -13.6134 -1.67281 4.1994
2 -13.7047 1.28979 -4.5581
2 -2.79208 -13.9871 0.173996
2 -7.99847 -10.9653 4.33479
1 -5.49727 -12.5022 -4.58691
2 11.0292 -9.32205 0.0503847
2 8.43553 -11.0054 4.40556
2 5.10402 -12.4527 -4.35236
1 5.31359 0.06353 13.5601
2 2.70455 -4.62232 13.2599
2 -2.80282 4.96735 13.7157
2 2.93275 -4.61052 -13.4161
2 -2.54961 -4.61443 -13.3391
2 2.83422 4.86877 -13.148
2 12.3738 -2.61709 6.79235
2 12.158 2.42305 -6.49242
2 0.153931 14.0434 -0.0500443
2 4.26266 11.7128 6.70558
2 7.97682 9.45955 -6.36503
1 -12.3318 6.80684 -0.119453
2 -3.70732 11.7353 6.73572
2 -8.36207 9.32882 -6.68196
2 -12.3389 -7.1622 0.077746
2 -12.2777 -2.54451 6.51757
2 -12.3801 2.31004 -6.75443
1 -0.141212 -14.0316 0.079219
2 -7.95906 -9.07654 6.56979
1 12.1446 -6.92413 0.0933031
2 8.26953 -9.34531 6.61633
2 4.02578 -11.6746 -6.72027
2 3.86281 2.31706 13.3584
2 -0.104605 -4.488 13.3514
2 -4.25583 2.6381 13.3848
2 3.9235 -2.2596 -13.268
2 -3.99556 -2.39422 -13.4727
2 0.080737 4.93081 -13.2992
2 10.6346 8.77568 -0.287005
2 10.7971 -3.43958 8.96022
2 10.7998 3.14422 -8.76093
2 -2.66201 14.1989 -0.0373931
1 1.69764 10.2988 11.1179
2 7.85394 7.81917 -8.75348
1 -13.581 4.32055 -0.0802552
2 -2.48309 10.8478 8.83073
3 -8.31841 7.82915 -8.84629
3 -10.8983 -9.53419 0.0835301
2 -10.9133 -3.05434 8.9661
2 -10.8594 3.08374 -8.73375
3 2.54465 -13.865 0.040961
2 -7.9236 -7.69264 8.94793
2 -2.92338 -11.0354 -8.70782
1 13.2371 -4.53544 -0.771685
2 8.08578 -7.88092 8.80045
2 2.74395 -10.9737 -8.96576
3 2.92481 4.73926 13.4384
1 -3.11264 -4.52341 13.2849
2 -5.30335 0.214846 13.343
2 -5.41274 0.247978 -13.4121
2 -2.6236 4.88361 -13.4217
2 9.5926 11.4537 -0.00391899
3 9.46135 -4.04543 11.0729
2 9.5548 3.7353 -10.865
2 -5.24755 14.1513 0.061496
1 -14.933 2.09007 -0.295481
2 -1.16661 10.1116 11.437
1 -8.2837 6.28396 -11.044
2 -9.50128 -11.7365 0.0986943
2 -9.59641 -3.91908 11.0699
1 -9.48732 3.69825 -11.108
2 5.31538 -14.0891 -0.147676
1 -8.21566 -6.24632 11.0158
2 -1.50116 -10.0894 -11.0754
2 14.9105 -2.37226 -0.113764
2 8.01404 -6.30003 11.1791
2 1.2634 -10.3772 -11.2355
2 1.80916 7.15195 13.5255
1 -5.72236 -4.55641 13.3323
2 -6.95105 2.43738 -13.3097
2 -5.49485 4.79984 -13.4353
2 13.3073 3.08403 -2.08768
2 4.17813 13.2587 2.39762
2 -9.59144 10.1197 -2.26983
3 -13.595 -3.20343 2.14132
2 -4.12757 -13.2932 -2.17096
2 9.78405 -10.0079 2.24402
2 4.0235 -2.35472 13.1998
2 0.241954 -4.74231 -13.5798
2 12.0421 4.0413 -4.25228
2 2.89699 12.6708 4.51528
2 -9.69275 8.69188 -4.56358
2 -12.3676 -4.02149 4.2616
2 -2.66507 -12.4792 -4.36162
2 9.59721 -8.58899 4.33287
2 -1.2733 -2.34905 -13.4447
2 10.8348 4.68859 -6.64898
2 1.75034 11.8421 6.86341
2 -9.65012 6.85285 -6.60169
2 -10.818 -4.75794 6.57367
2 -1.33868 -11.7147 -6.60141
2 9.69917 -7.28466 6.6831
2 -1.32321 -2.1315 13.3737
2 -2.86208 0.0497799 -13.2406
2 9.40973 5.48783 -8.76148
2 0.307505 10.8247 8.86201
2 -9.67939 5.44486 -8.74087
2 -9.71539 -5.39919 8.86931
2 -0.263599 -10.8031 -8.80355
2 9.53002 -5.77272 9.00128
1 -4.39415 -2.29901 13.0094
2 -3.9953 2.58461 -13.3471
2 13.5123 1.61307 2.19081
2 5.47958 12.5632 -2.12885
2 -8.03555 11.0535 2.22866
3 8.20924 -10.8776 -2.0899
3 12.129 0.675928 4.49199
2 5.44323 10.8578 -4.40525
2 -6.69699 10.2268 4.40171
2 -12.278 -0.942273 -4.51317
1 6.59093 -10.1153 -4.33743
2 10.9606 -0.207917 6.8011
1 5.18444 9.41107 -6.57253
2 -5.20877 9.27215 6.70629
2 -11.0067 -0.0506123 -6.64193
2 -5.28725 -9.01829 6.79126
2 5.35989 -9.12897 -6.66479
2 9.5536 -0.887665 9.01796
2 5.07775 8.01003 -8.82758
2 -3.79043 8.49511 8.89431
2 -9.4501 0.84064 -8.99886
2 -5.23644 -7.84712 9.12898
2 4.1453 -8.55311 -9.05175
2 8.19996 -1.80112 10.9969
1 5.53437 6.24473 -11.0018
2 -2.73793 7.86964 11.2396
2 -5.5044 -6.10366 11.0937
2 3.11142 -7.72404 -11.2171
3 1.42928 13.3138 2.1881
2 -10.825 7.71196 -2.25716
2 -1.31988 -13.3009 -2.08678
2 2.60821 -0.0627975 13.4097
2 1.39362 -2.40948 -13.4798
2 10.5348 6.25285 -4.40789
2 0.268493 12.6389 4.54259
2 -10.955 6.30981 -4.43943
2 -11.0275 -6.26349 4.41626
2 -0.0681831 -12.3804 -4.40051
2 11.0885 -6.50932 4.46284
1 0.0329949 0.174196 13.3373
2 0.0372108 0.0503199 -13.3939
2 9.22906 7.04634 -6.65989
2 -0.935136 11.6528 6.6346
1 -11.2045 4.68661 -6.66276
2 -9.53444 -6.97118 6.74027
2 1.41602 -11.5987 -6.88832
2 11.073 -4.87931 6.65336
2 -2.71977 -0.00187704 13.3224
2 -1.36221 2.44972 -13.3597
2 12.3052 3.87282 2.16389
2 2.79297 12.6709 -2.02938
2 -2.53498 -12.3673 2.35308
2 9.62458 -8.5262 -2.27066
2 2.64712 11.0725 -4.34284
2 -10.9083 -3.51236 -4.54178
2 -2.46356 -10.8418 4.45638
2 7.91878 -7.77563 -4.44246
2 9.444 2.3291 6.81495
2 2.43279 9.6033 -6.75632
2 -6.67058 7.05614 6.57406
2 -9.72825 -2.4459 -6.87496
2 6.7873 -6.84203 -6.82468
2 8.05994 1.33993 8.93111
2 2.37247 8.08954 -8.83553
2 -5.35188 6.43678 8.78168
2 -8.10098 -1.51359 -8.87878
2 -2.47256 -7.58758 9.01543
2 5.25292 -6.10868 -8.98336
2 6.5378 0.672478 11.1584
2 2.61789 6.27098 -11.012
2 -4.02835 5.50129 11.0945
1 -6.65335 -0.833237 -10.9703
2 -2.81113 -6.06483 11.2055
2 -1.20272 13.4872 2.30347
2 -12.0932 5.38272 -2.23913
2 -10.8927 -7.80312 2.23134
2 12.3125 -5.57146 2.31307
2 2.84462 0.24741 -13.2314
3 9.24648 8.39618 -4.19702
2 -12.4349 3.71145 -4.5378
2 -9.37978 -8.58382 4.44378
2 2.54905 -12.6653 -4.36303
2 12.183 -3.94631 4.43986
2 -1.54329 2.48147 13.5305
3 1.32352 2.5689 -13.1975
2 11.1416 6.06212 1.98256
2 -0.0866942 12.5923 -2.18638
1 -10.806 6.5006 2.17763
2 -11.1262 -6.12604 -2.11609
2 0.00326896 -12.4497 2.3773
1 10.9415 -6.1469 -2.16209
2 9.57627 5.35406 4.39088
2 -0.0706739 11.1808 -4.37031
3 -9.47207 5.47591 4.44224
2 -9.55872 -5.62939 -4.61185
2 0.000832713 -10.8151 4.62815
2 9.62892 -5.34561 -4.3532
2 8.2621 4.51835 6.66496
2 -0.213111 9.5057 -6.71868
2 -8.23497 4.74793 6.82929
2 -8.27378 -4.5466 -6.76821
2 0.244755 -9.00332 6.65436
1 8.37649 -4.66317 -6.92657
2 6.77001 3.78327 9.08403
3 -0.274821 8.01891 -8.7989
2 -6.84056 3.9373 8.96358
2 -6.60765 -3.90419 -8.8818
2 0.0875672 -7.37342 8.55728
2 6.84915 -3.89736 -8.8326
2 5.28454 3.05269 11.0602
1 -0.231871 6.24375 -11.0422
2 -5.52166 3.28909 11.195
2 -5.29311 -3.11154 -11.1604
2 -0.262746 -6.00024 11.0721
2 5.43661 -3.2456 -10.9836
2 9.24439 9.97876 -2.0756
2 -4.0043 13.3813 2.17104
2 -13.9189 3.19481 -2.48918
2 -9.36828 -10.0378 2.15261
2 3.79279 -13.2568 -2.11264
2 13.5874 -3.3215 2.18212
2 0.256356 4.68552 13.4586
2 4.06319 2.54822 -13.1235
3 9.441 8.40238 1.96606
2 -2.87476 12.6659 -2.19563
2 -12.2581 3.50299 2.0274
2 -9.39003 -8.65554 -2.23934
2 2.77891 -12.3227 2.07077
2 8.06931 7.80675 4.28446
2 -2.94027 10.9593 -4.11482
2 -10.8716 3.21458 4.43648
2 -8.13817 -7.9563 -4.3492
2 2.86273 -10.737 4.34545
2 11.0575 -3.00614 -4.40792
2 6.81364 7.00714 6.63515
2 -3.09223 9.55941 -6.67018
3 -9.38992 2.36126 6.67054
2 -6.73301 -7.13101 -6.64443
2 2.72773 -9.24765 6.59935
2 9.60731 -2.33595 -6.66901
2 5.35305 6.29406 9.03823
2 -2.89738 8.2283 -8.81375
2 -8.37622 1.70564 8.92306
2 -5.48073 -6.26951 -8.8379
2 2.58404 -7.82261 8.94925
2 8.19231 -1.61162 -8.9759
2 4.15767 5.48762 11.1084
2 -2.88103 6.55624 -10.9637
2 -6.97961 1.1818 11.2457
2 -4.17208 -5.60237 -11.2926
2 2.45461 -6.16059 11.0627
2 6.69664 -0.826983 -11.1522
2 8.33194 10.6326 2.16648
2 -5.5953 12.5532 -2.19782
2 -13.8142 1.49468 1.92545
2 -8.24192 -10.9967 -2.148
2 5.62571 -12.4482 2.17206
2 6.96915 10.1294 4.38739
2 -5.74872 10.8884 -4.64689
2 -12.4258 0.753231 4.26317
2 -6.79447 -10.2254 -4.45377
2 5.57893 -10.9622 4.37657
3 12.1079 -0.653375 -4.46
2 5.48849 9.2586 6.55461
1 -10.9672 -0.0465046 6.5004
2 5.43157 -9.23597 6.50051
2 10.8891 0.170055 -6.71281
3 4.14039 8.6325 8.9919
1 -5.48918 7.94117 -8.95612
2 -9.6304 -0.83245 8.96374
2 -4.19103 -8.65674 -8.84738
2 5.47614 -7.64827 8.83339
2 9.4946 1.00784 -8.88375
2 2.69572 7.93281 11.2139
2 -5.58181 6.33601 -11.1234
2 -8.37136 -1.39223 11.2641
1 -2.87665 -6.3642 -9.08547
2 5.38184 -6.17933 11.0034
2 8.01257 1.80396 -11.1329
2 18.751 0.151362 -0.537423
2 10.8826 16.7923 -0.387326
2 -9.728 16.3393 0.289567
2 -19.2748 -0.130865 -0.415136
2 9.45274 -16.472 -0.209666
2 9.41674 -5.5196 15.6424
2 0.139279 11.0622 15.6932
2 -9.77437 -5.37952 15.617
2 -0.101716 -11.0615 -15.6088
2 10.5242 6.19515 -15.29
2 -9.61094 5.82886 -15.6885
2 17.36 2.16772 -0.116033
2 17.5056 -1.01209 2.10162
2 7.98532 16.4405 0.218379
1 8.97764 18.1778 4.04483
2 8.5241 15.1312 -2.02116
2 -11.1849 13.8641 0.248047
1 -7.30804 16.763 0.595077
2 -9.79822 14.5993 -2.17169
2 -17.6908 -2.51249 -0.317808
2 -17.6695 -0.753432 1.87672
2 -17.6526 0.49333 -2.44356
1 -4.25145 -16.7145 0.777779
2 -9.66167 -15.2043 2.11302
2 -8.09468 -15.9681 -2.28716
3 11.0048 -13.8504 0.0610787
2 9.51897 -14.9071 2.07049
2 8.05228 -15.4281 -2.3724
2 8.07998 -3.13242 15.5339
2 6.74458 -5.49309 15.7193
2 -1.15258 8.73446 15.9014
2 1.33337 -8.58343 -15.4619
2 -1.19004 -8.70015 -15.4568
1 6.62961 5.64677 -15.1209
2 16.3661 4.69093 -0.141927
1 16.0774 -1.74913 4.42827
2 16.3181 1.61358 -4.61165
2 4.30439 16.5063 -0.0060251
1 7.54787 13.9351 4.38765
2 9.17192 13.6768 -4.29907
3 -12.4388 11.403 0.141978
2 -6.43582 14.8756 4.47575
2 -16.1171 -4.90998 -0.100701
2 -16.3175 -1.58588 4.13308
2 -16.284 1.32262 -4.70242
2 -9.45268 -13.2756 4.34562
2 -7.05318 -14.9801 -4.57248
2 12.2906 -11.7036 0.0577386
2 9.45619 -13.346 4.47323
2 6.77173 -14.7264 -4.65175
3 6.9454 -0.749557 15.7083
2 4.04765 -5.24557 15.6997
2 -2.51839 6.45425 15.8726
2 2.80391 -6.09859 -15.5697
2 -2.59406 -6.27365 -15.6551
2 14.4016 6.50987 0.590048
2 14.8431 -2.8282 6.61142
1 14.8046 2.53959 -6.50691
2 1.50665 16.3448 0.0808195
2 5.91935 13.9433 6.4875
2 9.33646 11.9295 -6.38994
2 -13.6379 9.08291 -0.21061
2 -5.19919 14.1077 6.67799
2 -9.57685 11.6068 -6.60038
2 -14.9887 -7.32648 0.046139
2 -14.8637 -2.49614 6.29397
2 -14.9701 2.27243 -6.89448
1 -9.42631 -11.5911 6.37701
2 -5.67642 -14.0945 -6.74388
2 13.6957 -9.36643 0.0769657
2 9.75777 -11.7223 6.58728
2 5.26273 -14.0755 -6.6634
2 5.44442 1.37348 15.6456
2 1.44585 -5.20579 15.5486
2 -4.1653 4.11752 15.7284
2 4.06413 -3.71509 -15.5814
2 -3.82323 -3.90636 -15.7256
2 1.51741 5.77239 -15.2257
2 12.8304 8.44228 0.853317
2 13.6949 -3.61531 8.79961
2 13.6553 3.25441 -8.85856
2 -1.19375 16.6819 0.233036
2 4.42458 13.5114 8.73697
2 9.26595 10.1711 -8.77386
2 -14.9291 6.83801 -0.318463
2 -3.86664 13.2711 9.00245
2 -13.607 -9.54243 -0.19418
2 -13.6807 3.22369 -9.17461
2 1.13045 -16.2569 -0.101736
2 -9.37076 -10.1418 8.79731
2 -4.39126 -13.2713 -8.72957
2 15.19 -7.07176 0.0689373
2 9.42675 -10.33 8.93872
3 3.97087 -13.3848 -9.02902
2 4.1687 3.74744 15.558
2 -1.21415 -5.09276 15.6691
2 -5.5852 1.81623 15.6387
2 5.53698 -1.29227 -15.2856
2 -5.23323 -1.45591 -15.7376
2 -1.36359 5.65394 -15.4569
2 12.2061 -4.10574 11.0889
1 12.2518 3.93 -11.064
2 3.00467 12.4604 10.9952
2 9.26351 8.49706 -10.9996
3 -16.241 4.42617 -0.351103
2 -2.52515 12.3696 11.0048
2 -9.66133 8.56814 -11.2026
2 -12.2491 -11.6864 -0.0140662
2 -12.3748 -4.11176 11.1132
2 -12.3089 3.98667 -11.4096
1 4.01608 -16.3946 -0.141685
2 -9.49724 -8.52658 11.1243
2 9.31706 -8.77601 11.1203
2 2.81587 -12.5334 -11.6032
2 3.03016 6.27171 15.5663
2 -7.05983 -0.639745 15.4779
2 6.78144 0.914926 -15.2899
2 -6.65439 0.885706 -15.6237
2 -4.26075 5.53701 -15.6533
2 10.2776 14.1061 -0.185092
3 10.8037 -4.9182 13.4196
2 10.8831 4.43629 -13.0706
2 1.73403 11.6788 13.3739
1 9.6568 6.95046 -13.2177
2 -1.02274 11.998 13.5425
2 -9.70204 7.25488 -13.4778
1 -8.41811 -4.54525 13.3814
2 -10.9556 4.72199 -13.6589
2 6.455 -16.4291 -0.214802
2 -9.68943 -6.74039 13.3703
2 -1.45419 -11.895 -13.2972
2 17.7759 -2.33662 -0.326937
2 9.39345 -7.25239 13.2754
1 1.60194 8.6457 15.7556
2 -7.06794 -5.26003 15.7068
2 -8.47597 -2.94546 15.5316
2 8.13418 3.23174 -15.2779
1 -8.25678 3.3009 -15.5943
2 16.1294 3.07927 -2.21733
2 6.00712 15.5207 1.9281
2 -11.0778 12.2618 -2.28719
2 -16.3174 -3.09003 1.9929
2 -5.53471 -15.7751 -2.1989
2 10.859 -12.4498 2.2603
2 0.0906579 -6.29408 -15.7786
2 14.8771 3.94147 -4.30048
2 4.62243 14.9733 4.32872
2 -11.061 10.7869 -4.50504
2 -15.0012 -4.05703 4.11589
2 -4.12324 -14.5839 -4.44681
2 11.1359 -11.0064 4.48947
2 2.57537 -2.79781 15.4238
2 -1.20334 -3.83394 -15.6392
2 13.5042 4.93475 -6.36925
1 3.02702 14.0955 6.71009
2 -11.2603 9.25303 -6.75788
2 -13.7583 -4.98696 6.49721
2 -2.91378 -13.8344 -6.66837
2 -2.61698 -1.43886 -15.6583
2 12.1361 5.61418 -8.60138
2 1.5224 13.4213 9.12132
2 -11.0756 7.66563 -9.03189
2 -12.5285 -5.39653 8.73307
2 10.8949 -7.98742 8.96236
2 -2.86623 -2.91996 15.9568
2 -3.94584 0.959057 -15.537
1 8.32988 5.94485 -10.9453
2 0.298252 12.377 11.1763
2 -10.9163 6.15572 -11.2816
3 -11.1656 -6.25143 11.1435
2 -0.111939 -12.4623 -11.1082
2 10.8129 -6.41598 11.3068
2 -5.6446 -2.71585 15.6384
2 -5.63357 3.1669 -15.4234
2 16.0507 1.39721 2.14069
2 -9.59766 13.1049 2.24489
2 -16.216 -1.85177 -2.30312
2 -6.86585 -14.9609 2.32335
2 9.49333 -13.0876 -2.15511
2 14.8544 0.651746 4.40356
2 6.6578 13.3916 -4.24144
3 -8.20782 12.5065 4.49804
2 -14.8808 -1.18724 -4.50761
2 -6.48272 -13.1994 4.4203
2 7.96016 -12.3425 -4.46836
2 13.7294 -0.256959 6.60355
2 6.65999 11.7911 -6.45966
2 -6.56427 11.7922 6.76618
2 -13.8084 -0.00869672 -6.92
1 -6.68229 -11.5923 6.57159
2 6.69765 -11.7349 -6.59107
2 12.4689 -1.16646 8.77601
2 6.66299 10.2802 -8.65626
2 -5.1599 10.9392 8.88923
2 -12.1431 0.757282 -8.94571
2 -6.59519 -10.0659 8.97703
3 5.482 -10.9954 -8.83852
2 10.9579 -1.76143 11.1295
2 6.5933 8.73779 -10.9476
2 -3.89197 10.229 11.126
2 -10.7792 1.60037 -11.0885
2 -6.70674 -8.46897 11.2801
3 3.99629 -10.1183 -10.9973
2 9.43812 -2.53999 13.1314
2 6.92954 6.93299 -12.9135
2 -2.63706 9.28354 13.7739
2 -9.56428 2.42599 -13.3077
2 -6.98174 -6.93506 13.4952
2 2.61599 -9.48321 -13.2572
2 14.6762 5.42312 -1.88894
2 3.12041 15.6356 2.30824
2 -12.3393 10.0213 -2.34246
2 -15.0107 -5.56449 2.06163
2 -2.72446 -15.754 -2.14336
3 12.3387 -10.1238 2.23173
2 13.2964 6.27952 -4.13173
2 1.60458 14.9731 4.47556
2 -13.5883 -6.416 4.22562
2 -1.4604 -14.7046 -4.40235
3 1.35057 -0.520969 15.5985
2 0.201789 -1.48562 -15.8
2 12.0644 7.24162 -6.47158
2 0.365569 14.2389 6.88449
2 -12.4915 6.87782 -6.91857
2 -12.2301 -7.06646 6.55495
2 -0.114611 -14.041 -6.78921
2 12.4342 -7.10999 6.76995
2 -1.29204 -0.542599 15.622
2 -1.08233 0.829222 -15.7315
2 10.6857 7.87498 -8.81438
2 -1.05944 13.3428 8.95789
2 -12.3792 5.37105 -9.04984
2 -10.8051 -7.65983 8.83879
2 1.45629 -13.2906 -9.02024
3 12.088 -5.53432 8.96304
2 -4.2263 -0.488631 15.7575
2 -2.74385 3.22697 -15.6351
2 15.0154 3.96819 2.0209
2 4.00324 15.1153 -2.15622
2 -10.7901 10.8898 2.31974
2 -4.25555 -14.7926 2.39789
2 10.7043 -10.7294 -2.24311
2 13.5755 3.00679 4.27574
2 3.86179 13.3995 -4.29579
2 -9.45631 10.0853 4.49353
3 -13.5994 -3.36087 -4.70746
2 -4.01042 -13.0804 4.50161
2 9.27891 -10.1422 -4.43491
2 12.2917 2.11709 6.66131
2 3.91804 11.9261 -6.51821
2 -7.88813 9.33675 6.46669
2 -12.3048 -2.44372 -6.70622
2 -4.03533 -11.348 6.59344
2 8.0164 -9.15715 -6.5874
2 4.02744 10.413 -8.66865
2 -6.71453 8.66096 8.8213
2 -10.8953 -1.58588 -8.92862
2 -3.80955 -9.98221 8.81766
2 6.69668 -8.58809 -8.8421
2 9.33712 0.573003 11.2073
2 3.86444 8.6868 -10.9317