2891
 Atoms. Timestep: 6000
2 -0.192221 -0.0390031 0.159984
2 2.70497 -0.000214197 -0.235107
2 1.22498 2.21055 -0.033497
1 -1.42697 2.44919 0.110529
3 -2.71511 0.10292 0.0821772
2 -1.38296 -2.38493 -0.0695331
2 1.2881 -2.39269 -0.0229533
2 -0.00224521 1.27364 2.3637
2 -1.64104 -0.677399 2.31618
2 0.0286825 -1.51139 -2.24506
3 1.1174 0.787503 -2.26804
2 -1.49252 0.923941 -2.11295
2 5.51962 0.112375 -0.0723315
2 2.80283 4.74982 0.0282304
2 -2.73165 4.73225 0.133318
2 -5.53374 -0.0531575 0.105246
2 -2.768 -4.70098 0.0912644
2 2.69477 -4.76467 0.0726247
2 2.73154 -1.65773 4.61549
1 0.0879768 3.30547 4.46101
1 0.351874 -3.28947 -4.36644
2 2.58348 1.52832 -4.43816
2 -2.85585 1.67803 -4.37432
2 4.14175 2.24861 0.0505958
1 1.97556 -0.938656 2.22336
3 4.05361 0.769293 -2.28321
2 0.125146 4.83021 -0.0936731
2 1.40386 3.92293 2.12896
2 2.87257 3.03242 -2.08842
2 -4.19829 2.37959 0.2479
2 -1.28524 3.91437 2.29831
2 -2.76541 3.29404 -1.99884
1 -3.92509 -2.42587 0.152723
2 -4.1901 1.01584 -2.18717
2 -0.0803882 -4.73378 0.148193
2 -2.63256 -2.9782 2.41825
2 -1.35282 -4.05456 -2.1604
2 4.04793 -2.49419 -0.0828722
2 2.53517 -3.28511 2.39444
2 1.4322 -3.91614 -2.18903
2 1.34595 0.726711 4.2424
2 0.0921566 -1.61901 4.49225
1 -1.4589 0.646254 4.56251
2 1.31885 -0.770444 -4.42358
2 -1.54908 -0.677177 -4.30719
2 -0.187723 1.49482 -4.41369
2 2.71159 1.41369 2.0839
2 0.0903146 3.00672 -2.27299
2 -2.73471 1.67261 2.25827
2 -2.79575 -1.538 -2.10409
2 2.54489 -1.52074 -2.13802
1 8.23217 -0.158556 -0.0567894
2 4.03343 7.11076 -0.132152
2 -4.22242 7.1604 -0.00147413
2 -8.1454 0.0691922 -0.02378
2 -4.13672 -7.05186 0.0951771
2 4.15439 -7.02493 -0.101884
2 3.98479 -2.27857 6.8647
1 0.0123434 4.85384 6.95448
2 -4.06216 -2.23934 6.78488
3 -0.103765 -4.73697 -6.6752
2 3.93468 2.26725 -6.6244
2 -4.16041 2.42145 -6.63246
3 7.11501 2.40005 -0.0604154
2 6.9531 -0.970478 2.20151
2 6.74454 0.742478 -2.24344
2 1.19097 7.20113 -0.198421
2 2.82732 6.34888 2.06989
2 3.95137 5.50622 -2.23677
2 -5.5084 4.7443 -0.0275996
2 -2.63524 6.42476 2.23578
3 -4.08075 5.66867 -2.13542
1 -6.76058 -2.29332 -0.0588639
2 -7.0165 -0.66944 2.35059
2 -6.83474 0.920743 -2.31411
2 -1.36017 -7.09193 0.121127
2 -3.99373 -5.47603 2.34782
2 -2.79352 -6.30574 -2.20953
1 5.59123 -4.79328 0.186933
2 4.07985 -5.50348 2.2913
2 2.50344 0.0390857 6.5906
2 1.25154 -2.40205 6.70647
2 -1.60336 2.395 6.78078
3 1.21491 -2.35262 -6.66126
2 -1.62904 -2.36523 -6.54948
2 1.23618 2.21842 -6.70478
2 5.58544 4.81047 -0.043881
2 5.40389 -1.69004 4.36215
2 5.48797 1.45033 -4.56034
2 -1.40908 7.08314 -0.0387547
2 1.42782 5.41371 4.34952
1 4.16773 3.70239 -4.35951
2 -6.90348 2.3945 0.0226327
2 -1.35397 5.56026 4.54856
1 -3.94871 4.11585 -4.42628
2 -5.41472 -4.54956 0.0307544
2 -5.60353 -1.64855 4.47542
2 -5.521 1.75955 -4.46894
2 1.43332 -6.97147 0.0874659
2 -4.20213 -3.78895 4.60702
2 -1.29521 -5.48791 -4.36777
2 6.76765 -2.29216 -0.0718587
2 4.07476 -4.00904 4.43794
2 1.31061 -5.56762 -4.36612
2 1.27908 2.39727 6.67534
2 -1.58238 -2.34245 6.59346
3 -2.82667 0.040321 6.79268
2 2.57677 -0.113084 -6.6436
2 -2.88203 0.171609 -6.60209
2 -1.37869 2.35133 -6.60587
2 5.53188 2.95418 -2.16598
2 -0.0346109 6.08891 2.27126
2 -5.38879 3.42893 -2.24868
2 -5.60154 -2.99588 2.20604
2 -0.0686618 -6.22145 -2.10717
2 5.41308 -3.16191 2.17763
2 -0.182708 -0.174755 6.44349
2 -0.1795 -0.11304 -6.58163
2 5.60841 1.52937 2.14849
2 1.28769 5.38298 -2.33492
2 -4.0554 3.96886 2.44169
2 -5.39238 -1.58049 -2.19649
2 -1.36813 -5.55033 2.36695
2 4.17539 -4.00687 -2.09241
2 4.11332 0.585692 4.23322
2 1.62693 3.91885 -4.58351
2 -2.8377 3.02946 4.52522
2 -4.30955 -0.629669 -4.43944
2 -1.37516 -3.99557 4.48282
2 4.21812 3.9016 2.16618
1 -5.70824 1.57868 2.42101
2 -4.14822 -4.00633 -2.19123
3 1.30299 -5.67961 2.23218
2 5.48719 -1.66309 -2.33689
2 2.73091 2.96533 4.31851
2 -1.43918 4.10809 -4.15903
2 -4.05036 0.705424 4.60628
2 -2.93203 -2.9936 -4.43156
1 0.0474322 -3.08216 2.36345
2 4.07378 -0.819053 -4.3912
2 11.0098 0.0431623 0.0680177
2 5.66173 9.44776 0.0311701
2 -5.5945 9.45554 0.0480109
2 -10.9713 -0.168469 0.0160085
2 5.53026 -9.29028 0.0576545
2 5.35205 -3.25875 9.11212
2 -0.115311 6.41633 9.10511
2 -5.50243 -3.1546 9.05443
2 -0.12149 -6.41179 -8.87388
2 5.51107 3.16119 -9.03594
2 9.77134 2.39779 -0.0547767
2 9.46191 0.725301 -2.3523
2 2.61958 9.34356 0.143885
2 4.21822 8.88195 2.26144
2 5.43346 7.95584 -2.23739
2 -7.04978 7.15708 -0.0072553
2 -4.013 8.6969 2.12457
2 -5.39247 7.90398 -2.17268
2 -9.5481 -2.38254 0.188601
3 -9.74657 -0.932417 2.26991
2 -9.59506 0.835276 -2.29531
2 -2.83556 -9.41697 0.139475
2 -5.37792 -7.83541 2.14378
2 -4.18463 -8.76872 -2.16936
3 6.96858 -7.11885 -0.116101
2 5.50316 -7.70131 2.11783
2 4.20896 -8.62949 -2.35082
1 3.94327 -0.960664 9.13172
2 2.5549 -3.2526 9.01209
2 -1.44106 3.91671 8.99329
2 1.05026 -3.88667 -8.84523
2 -1.61859 -3.75128 -8.79832
2 2.70821 3.13814 -8.88474
2 8.3588 4.78712 -0.102495
2 8.13547 -1.61191 4.58037
2 8.12071 1.4942 -4.45093
2 -0.103249 9.55255 0.123657
2 2.85817 7.85884 4.50163
2 5.60895 6.40497 -4.37053
2 -8.29141 4.78943 -0.0604803
2 -5.51104 6.37518 -4.38726
2 -8.00429 -4.85166 0.013252
2 -8.33199 -1.68709 4.64067
2 -8.11549 1.66246 -4.45629
2 0.0868402 -9.43 0.195754
1 -5.37926 -6.40292 4.66757
2 -2.79715 -7.64097 -4.39885
2 8.19784 -4.68243 -0.0693325
2 5.49462 -6.12646 4.49851
2 2.61727 -8.01553 -4.64274
2 2.69226 1.51993 8.94665
3 -0.109505 -3.13848 8.89328
2 -2.81295 1.56618 9.02458
2 2.63488 -1.66527 -8.8281
2 -2.88078 -1.43326 -8.96509
2 0.0551834 3.13456 -9.0146
2 6.78916 -2.44373 6.73824
2 6.84888 2.33208 -6.78359
2 -2.85496 9.46767 0.00860245
2 1.36965 7.05677 6.80978
2 5.42113 4.62704 -6.66746
2 -9.5485 2.35883 0.0719412
2 -1.48044 6.98739 6.59679
2 -5.53698 4.6508 -6.7433
2 -6.812 -7.09405 -0.128674
2 -6.70963 -2.39176 6.84055
2 -6.92139 2.46139 -6.85928
2 2.65254 -9.32791 -0.0359604
1 -5.31777 -4.80816 6.87435
2 -1.35744 -7.11314 -6.67021
1 9.4354 -2.48166 -0.0851592
1 5.48623 -4.70355 6.71534
2 1.32716 -6.81489 -6.64151
2 1.37491 3.86841 8.93765
2 -2.64129 -2.99993 8.95529
2 -4.13238 -0.789316 8.9375
2 4.00305 0.649639 -8.89691
2 -4.16037 0.845104 -8.88528
2 -2.61578 3.32325 -8.64774
2 8.21962 3.30945 -2.24879
2 -6.831 5.67747 -2.22038
2 -8.28372 -3.13631 2.45832
2 -1.29585 -8.64993 -2.00176
2 7.08173 -5.49655 2.28354
2 1.26494 -0.888194 8.9878
2 -0.241291 -1.57789 -8.82813
2 6.97906 3.99701 -4.45196
2 0.216835 7.9528 4.52002
2 -6.6695 4.05995 -4.49922
2 -6.83859 -3.93596 4.52752
2 -0.06112 -8.076 -4.37394
2 6.87336 -3.94619 4.50803
2 -1.34504 -0.782004 8.85334
3 -1.41542 0.810677 -8.72494
2 8.393 1.65074 2.16371
2 2.6471 7.92809 -2.29653
2 -5.58572 6.27914 2.20934
2 -8.15834 -1.55712 -2.13677
2 -2.76641 -7.81677 2.44272
2 5.61811 -6.17214 -2.21122
2 6.79779 0.72823 4.30455
2 2.56844 6.42379 -4.46076
2 -4.14698 5.52436 4.66348
2 -6.94516 -0.88222 -4.43571
2 -2.66188 -6.35849 4.62077
2 4.00807 -5.63617 -4.39315
2 5.39857 -0.140867 6.6556
2 2.7158 4.8154 -6.8549
2 -2.81673 4.79136 6.70635
1 -2.65623 -4.88245 6.97882
1 6.88793 7.06352 0.00113143
2 -1.33747 8.56453 2.34404
2 -8.3569 3.22367 -2.15157
2 -6.89415 -5.44513 2.37129
2 1.49047 -8.58397 -2.1729
2 8.25946 -3.14216 2.27199
2 -0.0174432 1.56222 8.9005
2 1.29224 0.818511 -8.88983
2 6.98573 4.09926 2.10057
2 -0.0976655 8.01522 -2.33506
2 -7.00727 4.05424 2.13595
3 -6.69963 -3.77807 -2.29279
2 0.0536239 -8.0284 2.36406
2 7.00164 -4.0483 -2.30262
2 5.52953 3.17969 4.31958
2 -0.0135435 6.3584 -4.46516
2 -5.56338 3.37875 4.57945
2 -5.62452 -2.90728 -4.58092
2 -0.0603946 -6.36114 4.60416
2 5.24663 -3.2225 -4.43255
1 4.12972 2.35515 6.70632
2 0.0976389 4.77254 -6.50898
1 -4.1817 2.37957 6.65317
2 -4.20035 -2.1998 -6.8028
2 -0.11409 -4.85815 6.82882
2 4.01969 -2.53669 -6.69869
2 5.57527 6.43558 2.32508
3 -2.66113 8.05269 -2.18156
2 -5.53834 -6.16645 -2.29
3 2.73797 -7.80519 2.23757
2 8.30154 -1.56295 -2.43738
2 4.19926 5.58059 4.39822
2 -2.66123 6.39134 -4.2849
2 -6.83676 0.857708 4.41113
2 -4.19488 -5.39064 -4.4751
2 2.53654 -6.27411 4.48286
2 6.76081 -0.90964 -4.50288
2 2.72889 4.68894 6.7367
2 -2.40629 4.9708 -6.36565
2 -5.65158 -0.0188572 6.56693
2 -2.68165 -4.78585 -6.66208
2 2.59599 -4.78892 6.85538
2 5.52273 -0.105496 -6.73548
2 13.653 0.0420888 0.0395163
2 6.79471 12.0167 -0.0680678
2 -6.76342 11.9085 0.301654
1 -13.7121 -0.184079 0.00360634
3 -6.98115 -12.1097 -0.0182764
2 6.70885 -11.7608 -0.106125
2 6.88525 -4.01066 11.0094
2 -0.118764 7.80703 11.2422
2 -6.80954 -3.96211 11.2411
2 -0.0315373 -7.81655 -11.0044
2 6.79857 3.82041 -11.1119
2 -7.02537 4.00275 -10.9704
3 12.4263 2.31004 -0.0264568
2 12.2964 -0.674928 2.1769
2 12.3994 0.949669 -2.23385
2 4.14874 11.8121 -0.166987
2 5.55414 11.1853 2.08431
2 6.70491 10.3149 -2.0615
2 -8.2531 9.59794 -0.0117849
2 -5.35925 11.0548 2.28469
2 -6.81938 10.3639 -2.24714
2 -12.2901 -2.45711 0.00644361
2 -12.4315 -0.790158 2.29984
2 -12.264 0.696463 -2.13143
1 -6.6749 -10.1051 1.88585
2 -5.50584 -11.1877 -2.1898
2 8.18043 -9.40753 -0.0145735
2 6.8833 -10.1229 2.34193
2 5.49902 -11.0849 -2.31048
3 4.00352 -4.09099 11.2397
2 -1.39991 5.53135 11.2007
2 1.38285 -5.55788 -11.1197
2 -1.29889 -5.52154 -11.1769
2 4.28158 3.92314 -11.1182
2 11.3445 4.74735 -0.126869
2 10.903 -1.7131 4.5346
2 10.9315 1.75613 -4.56793
2 1.38264 11.876 0.0248965
2 4.21412 10.3192 4.53588
3 6.82347 8.68858 -4.42861
2 -9.61213 7.16162 -0.134597
2 -3.89612 10.1043 4.46054
2 -6.73784 8.78757 -4.55077
2 -10.855 -4.92282 0.0742026
2 -10.9535 -1.76876 4.37781
2 -10.7875 1.58489 -4.65169
2 -1.44995 -11.7439 0.0961457
1 -6.9937 -8.77353 4.44006
2 -4.07186 -10.1236 -4.30784
3 9.71972 -7.13824 0.0773168
2 6.85884 -8.62039 4.57431
2 4.09718 -10.271 -4.65192
2 3.93379 0.832676 10.9842
2 1.32018 -3.99111 11.1437
2 -2.78558 3.11641 11.3816
2 2.59277 -3.30358 -11.077
2 -2.86458 -3.2148 -11.078
2 1.48827 3.87872 -11.1381
2 9.74367 7.1133 0.0438231
2 9.60954 -2.47851 6.57797
3 9.55961 2.37244 -6.77576
2 -1.30094 11.8064 0.0525785
2 2.8415 9.38786 6.72946
2 6.93305 7.00931 -6.50691
2 -11.0335 4.7517 -0.0364788
2 -2.61562 9.31159 6.81285
2 -6.91533 7.12521 -6.85546
3 -9.43152 -7.0673 0.144635
1 -9.51916 -2.63859 6.81993
2 -9.67344 2.60969 -6.87806
2 1.42928 -11.7796 0.139489
2 -6.80953 -7.1579 6.91455
2 -2.89478 -9.45004 -6.65512
2 10.9969 -4.76789 -0.126974
2 6.81746 -7.02262 6.74168
2 2.43844 -9.42665 -6.83003
3 2.57903 3.02191 11.109
2 -1.36998 -4.04559 11.2567
2 -4.04715 0.726789 11.398
2 4.09554 -1.05392 -10.9978
2 -4.03715 -0.804778 -11.0724
2 -1.36527 3.97497 -11.0339
2 8.3541 9.46937 0.0381432
2 8.20325 -3.27288 8.69083
1 8.31099 3.28526 -8.85695
2 -4.13055 11.9076 0.049166
2 1.52014 8.61139 9.04374
2 -12.2738 2.33613 -0.0652854
2 -8.24519 -9.62455 -0.0853766
2 -8.12952 -3.28427 8.9608
2 -8.26477 3.26472 -8.94352
2 4.03972 -11.8281 0.0219891
2 -7.02428 -5.54949 9.04095
2 -1.37226 -8.77661 -9.04373
2 12.3643 -2.41207 -0.00102718
2 1.25337 5.37353 11.2542
1 -4.09198 -3.84963 11.2217
2 -5.56134 -1.54287 11.5294
2 5.46185 1.42971 -11.2138
1 -5.55122 1.62845 -10.6744
2 -4.11843 4.00917 -10.8449
2 10.956 3.23357 -2.34625
2 2.84995 10.9684 2.09894
2 -8.10522 7.95632 -2.32039
2 -11.0582 -3.35321 2.25957
3 -2.80824 -11.0269 -2.01456
2 8.36793 -7.86762 2.15719
3 2.5034 -1.4715 11.2782
2 -0.262243 -3.01829 -11.1471
3 9.64502 3.93622 -4.37216
2 1.60285 10.212 4.45381
2 -8.34015 6.4797 -4.48939
3 -9.52051 -4.0332 4.66345
2 -1.50525 -10.2571 -4.20219
2 8.29043 -6.2982 4.42731
2 0.0245286 -1.48027 11.2173
3 -1.45754 -0.698543 -11.0538
1 8.39378 4.70801 -6.56776
2 0.041485 9.40922 6.79494
2 -8.17844 4.91852 -6.88969
2 -8.16742 -4.8224 6.71263
2 -0.136675 -9.5075 -6.67752
2 8.01838 -4.77683 6.70258
2 -2.84629 -1.55336 11.2445
2 -2.7803 1.70659 -10.9543
3 10.987 1.68676 2.17453
3 3.96825 10.2049 -2.1324
2 -6.92771 8.67029 2.18781
2 -10.9471 -1.62589 -2.22087
2 -4.20606 -10.2504 2.18955
2 6.71993 -8.57547 -2.34681
1 9.52529 0.738774 4.22561
2 4.12967 8.80466 -4.4495
2 -5.4421 7.7717 4.50408
2 -9.39234 -0.764633 -4.43277
2 -4.32715 -8.6936 4.51863
3 5.23914 -7.89351 -4.5641
2 8.16112 -0.0450529 6.64718
2 4.09116 6.93811 -6.7199
2 -4.35807 7.11428 6.83633
2 -8.13246 0.0925 -6.72994
2 -4.0156 -7.22948 6.98593
3 3.9886 -7.24873 -6.78203
2 6.81551 -0.848105 8.92024
2 4.19345 5.57559 -8.87106
2 -2.78989 6.42774 8.87183
2 -6.84123 1.02173 -8.72166
2 -4.21973 -5.62035 9.16879
2 2.63222 -6.39554 -8.86876
1 9.56167 5.55656 -2.19977
2 0.0224624 11.1483 2.44775
2 -9.6552 5.5609 -2.41842
1 -9.47144 -5.46968 2.46774
2 -0.0934219 -11.006 -2.09602
2 9.66651 -5.48641 2.10836
2 1.35227 0.83794 11.2583
2 1.34344 -0.914506 -11.0634
2 8.4164 6.3198 -4.42227
1 -1.13405 10.2238 4.60511
3 -9.44028 4.01847 -4.68339
2 -8.30654 -6.31908 4.45467
2 1.22684 -10.3421 -4.3487
1 -1.30562 0.622794 11.0835
2 -0.159287 1.51833 -11.0091
2 9.68619 4.00755 2.30991
2 1.42214 10.3179 -2.08171
2 -8.37444 6.31885 2.24029
2 -9.41222 -4.00127 -2.24331
3 -1.55772 -10.3291 2.3038
2 8.37104 -6.3648 -2.18608
2 8.21924 3.1565 4.52973
2 1.26872 8.59424 -4.46008
2 -7.05689 5.50481 4.60888
2 -1.43002 -8.73052 4.58731
1 6.58481 -5.53352 -4.61008
2 6.76242 2.38176 6.6161
2 -5.70278 4.69963 6.77649
2 -1.43104 -7.19851 6.99496
2 4.97097 -4.78887 -6.53493
2 5.4435 1.54258 8.85566
2 1.46751 5.58169 -8.78919
2 -4.35166 3.93552 8.95662
2 -5.59752 -1.33019 -8.94093
2 -1.37069 -5.52117 9.16779
2 3.84958 -3.9798 -8.83333
2 8.23951 7.95333 -2.19556
2 -2.58324 11.0965 2.0825
2 -11.0992 3.13219 -2.26254
2 -7.96915 -7.90568 2.03829
2 2.68405 -11.1364 -2.21589
2 11.0422 -3.13344 2.17358
2 0.0339878 3.00671 11.074
2 2.76761 1.38862 -11.2019
2 8.35018 6.56032 2.15038
2 -1.54467 10.2534 -2.26713
2 -9.6907 3.98925 2.12951
2 -8.27753 -6.40396 -2.15235
2 1.3712 -10.0646 2.35996
3 9.59579 -3.81087 -2.33455
2 7.04889 5.45121 4.37288
2 -1.34821 8.75776 -4.56336
2 -8.22075 3.34925 4.2828
2 -6.92823 -5.23582 -4.44636
2 1.34159 -8.74753 4.61804
2 8.07234 -3.36562 -4.602
2 5.43163 4.83215 6.45185
2 -1.35427 7.2533 -6.69124
2 -7.05834 2.4135 6.61549
2 -5.43146 -4.53775 -6.72088
2 1.39885 -7.11757 6.8851
2 4.15355 3.85308 8.87866
1 -1.2962 5.58433 -8.77357
2 -5.51854 1.61945 8.99433
2 -4.19706 -4.00617 -8.84816
2 1.22166 -5.59597 8.97493
2 5.3886 -1.80842 -8.77163
3 6.92482 8.69436 2.27647
2 -4.20264 10.2362 -2.20763
2 -10.9392 1.53718 2.27049
2 -6.84959 -8.74475 -2.04478
2 4.01822 -10.005 2.25655
2 10.9766 -1.62208 -2.13855
2 5.52964 7.95858 4.43254
2 -4.10359 8.79012 -4.36978
2 -9.47877 0.732685 4.30344
2 -5.49461 -7.66683 -4.23365
2 4.07505 -8.49253 4.45709
2 9.52626 -0.864497 -4.62555
3 4.16873 7.18744 6.58174
2 -4.23945 7.25721 -6.50163
2 -8.17424 -0.0302031 6.51353
2 -4.03409 -6.94472 -6.63793
2 4.16439 -7.09093 6.67661
2 8.27598 0.00532492 -6.74237
2 2.91496 6.33195 8.73258
2 -3.94761 5.53583 -8.83389
2 -6.86623 -0.807478 9.10904
2 -2.72467 -6.32323 -8.99669
2 4.201 -5.51716 8.87455
1 6.92738 0.736375 -8.7967
3 16.456 0.114131 0.0807725
2 8.07102 14.2461 -0.126278
2 -7.97856 14.2556 -0.0697302
2 -16.27 -0.0434352 0.161502
2 -8.21948 -14.2992 0.0538435
2 8.05315 -14.1714 -0.130163
2 8.15062 -4.52432 13.2012
2 -0.0462003 9.46072 13.397
1 -8.32086 -4.99323 13.62
1 0.12044 -9.48278 -13.3105
2 8.17499 4.7743 -13.2021
2 -8.26698 4.77937 -13.4274
2 15.0833 2.53163 0.104649
1 14.9815 -0.576087 2.29235
2 15.1203 0.851905 -2.08382
1 5.23292 14.2279 0.00807359
2 6.72534 13.534 2.11629
3 8.16225 12.5079 -2.16948
2 -9.51748 11.9228 0.0566143
2 -6.70635 13.3522 2.2507
2 -8.13781 12.9227 -2.26581
2 -15.0039 -2.41779 0.0292668
2 -15.0177 -0.915834 2.37432
3 -14.9501 0.866419 -2.29581
2 -5.58163 -14.2664 0.114507
2 -8.37352 -12.8597 2.14616
1 -7.07875 -13.4394 -2.25276
2 9.55989 -11.7796 -0.0318333
2 8.02992 -12.6889 2.15984
2 6.77696 -13.2575 -2.32258
2 6.75803 -2.36246 13.408
2 5.62686 -4.89812 13.3206
2 -1.62093 7.22851 13.3978
2 1.27656 -7.17859 -13.3045
2 -1.4953 -7.23659 -13.1795
2 5.45011 4.62732 -13.4908
2 13.7755 4.62021 0.0634363
2 13.6053 -1.52208 4.48729
2 13.6096 1.62827 -4.47687
2 2.55403 14.1951 0.113713
2 5.39556 12.6703 4.40756
2 8.08761 11.1331 -4.44091
2 -11.0282 9.58357 0.0776039
1 -5.23311 12.5039 4.44793
2 -8.26745 11.2205 -4.63595
2 -13.5499 -5.00151 0.129628
2 -13.6019 -1.72182 4.62939
2 -13.7004 1.64304 -4.42466
2 -2.92748 -14.0979 0.0440195
2 -8.26155 -11.2194 4.4233
1 -5.62249 -12.5263 -4.43709
2 11.0534 -9.42106 0.145219
2 8.19132 -10.9572 4.46337
2 5.42618 -12.4389 -4.83273
1 5.30764 0.0324622 13.2903
2 2.75528 -4.66787 13.3483
2 2.63871 -4.71561 -13.4134
2 -2.75105 -4.66473 -13.4214
2 2.753 4.56611 -13.3276
2 12.6672 7.14647 0.0449322
2 12.3093 -2.42097 6.62983
2 12.3396 2.51441 -6.83738
2 0.0202308 14.1782 0.168964
2 3.91956 11.8431 6.68004
2 8.12529 9.4441 -6.55017
1 -12.3787 7.19091 -0.00398598
2 -3.93058 11.7909 6.54329
2 -8.23548 9.55913 -6.65569
2 -12.2386 -7.14214 0.00202859
2 -12.1874 -2.76832 6.63382
2 -12.3624 2.32825 -6.65235
1 -0.206316 -14.1398 0.100013
2 -8.19982 -9.67957 6.78618
2 -4.23806 -11.8269 -6.72473
1 12.4945 -6.97567 0.167458
2 8.08308 -9.31507 6.68308
2 3.83386 -11.9032 -6.74413
2 4.16429 2.21255 13.229
2 -0.00422779 -4.71731 13.4485
2 -4.03973 2.3549 13.5337
2 4.06174 -2.49734 -13.2516
2 -4.23533 -2.34903 -13.1749
2 0.0869173 4.53302 -13.1912
2 11.1444 9.51687 -0.101191
2 10.95 -3.22982 8.9611
2 10.9193 3.29221 -8.86543
2 -2.92952 14.2031 0.000696026
1 2.75851 10.9085 9.03595
2 8.18721 7.99239 -8.86901
1 -13.7761 4.69832 -0.00753067
2 -2.74199 11.071 8.81387
3 -8.1891 8.02922 -8.98439
3 -10.8363 -9.44936 0.137683
2 -10.9964 -3.34118 8.8292
3 2.67778 -14.0724 -0.116014
2 -8.20229 -8.05294 9.1162
2 -2.718 -11.0489 -8.9976
1 13.8483 -4.71038 0.0756785
2 8.17038 -7.84567 8.89584
2 2.65508 -11.0518 -8.97466
3 2.56829 4.69799 13.4959
1 -2.82462 -5.01958 13.4
2 -5.45612 -0.101491 13.6558
2 5.38014 -0.222749 -13.3578
2 -5.58085 -0.13018 -13.2625
2 -2.7532 4.75926 -13.361
2 9.66442 11.8061 0.0045062
3 9.60797 -3.85954 11.008
2 9.51638 3.8931 -11.2273
2 -5.39879 14.3786 -0.372805
2 1.42358 10.0912 11.2138
2 8.24306 6.35515 -10.9001
1 -15.0358 2.27415 -0.0202046
2 -1.47493 10.1386 11.2258
1 -8.1375 6.40452 -11.0573
2 -9.50235 -11.831 0.0492733
2 -9.63247 -4.21034 11.1865
1 -9.54827 4.14965 -11.1338
2 5.23316 -14.223 -0.0235665
1 -8.30804 -6.40306 11.1719
2 -1.34163 -10.2971 -11.1596
2 15.1195 -2.28192 -0.0297744
2 8.25761 -6.19394 11.1726
2 1.29527 -10.1575 -10.7578
2 1.34689 6.96412 13.4382
1 -5.47158 -5.01296 13.3466
2 -6.7146 -2.58538 13.7141
2 6.97708 2.18936 -13.4534
2 -6.78029 2.31673 -13.0119
2 -5.5473 4.62353 -13.0454
2 13.8267 3.2458 -2.1981
2 -9.5255 10.469 -2.27523
3 -13.6108 -3.15891 2.1591
2 -4.17335 -13.3214 -2.24786
2 9.53235 -10.359 2.17078
2 4.04182 -2.25948 13.3427
2 -0.020797 -4.73485 -13.2539
2 12.2565 4.07759 -4.52514
2 2.78939 12.6534 4.30676
2 -9.59178 8.73926 -4.4679
2 -12.3973 -4.13497 4.22644
2 -2.81678 -12.6943 -4.51004
2 9.60842 -8.53161 4.46563
2 1.35431 -2.36176 13.4384
2 -1.41585 -2.28633 -13.4454
2 10.9092 4.77347 -6.66159
2 1.39484 11.7423 6.98169
2 -9.5659 7.18309 -6.92388
2 -11.0758 -5.09688 6.79388
2 -1.57878 -11.8813 -6.69858
2 9.70296 -7.082 6.72096
2 -1.53628 -2.30733 13.6696
2 -2.65312 0.16132 -13.2527
2 9.64543 5.45901 -8.8294
2 0.0228942 10.9551 9.10375
2 -9.58323 5.66719 -8.98342
2 9.56286 -5.62956 8.86345
1 -4.06447 -2.48552 13.6308
2 -4.10989 2.34029 -13.1853
2 13.6372 1.60381 2.36557
2 5.4807 12.5515 -2.39739
2 -8.26714 11.1185 2.23232
2 -13.6185 -1.66601 -2.31202
2 -5.5678 -12.5221 2.15816
3 8.12669 -10.9841 -2.19187
3 12.3163 0.752535 4.54251
2 5.50224 10.9548 -4.42855
2 -6.74256 10.1422 4.2674
2 -12.0964 -0.754606 -4.43374
1 -5.53246 -11.1544 4.4188
1 6.72546 -10.2028 -4.48447
2 10.9666 -0.16845 6.67491
1 5.53459 9.67275 -6.65327
2 -5.51348 9.34859 6.54806
2 -10.8872 0.00957979 -6.70904
2 -5.49591 -9.53387 6.69975
2 5.49985 -9.57519 -6.79779
2 5.5325 7.76787 -8.82314
2 -4.21322 8.71167 8.91346
2 -9.5405 0.939023 -8.88837
2 -5.60927 -7.99473 9.09528
2 4.04447 -8.76582 -8.94628
2 8.03207 -1.65195 11.0147
1 6.67498 5.44117 -9.01155
2 -2.81855 7.97043 11.2846
2 -5.56516 -6.50174 11.2994
2 2.50281 -7.94092 -11.1852
2 12.4063 5.57853 -2.26249
3 1.28974 13.533 2.44323
2 -10.8667 8.07356 -2.21177
2 -1.54007 -13.2886 -2.21378
2 11.1132 -7.85403 2.1306
2 2.80974 0.00997133 13.4027
2 1.22608 -2.31272 -13.3186
2 11.1305 6.50327 -4.34952
2 0.16019 12.7147 4.56595
2 -11.0437 6.55955 -4.42317
2 -11.2001 -6.39986 4.39704
2 -0.0638534 -12.5848 -4.38837
2 10.9896 -6.24835 4.50786
1 -0.146602 -0.0359939 13.5351
2 -0.123037 -0.0791019 -13.3138
2 9.53361 7.10242 -6.65833
2 -1.17276 11.7769 6.72566
1 -10.9667 4.93041 -6.87027
2 -9.61416 -7.30084 6.67392
2 1.32466 -11.7636 -7.01081
2 10.9211 -4.80631 6.71894
2 -2.68783 -0.0707598 13.6059
2 -1.25128 2.39457 -13.2014
2 12.4579 3.9576 2.30429
2 2.74336 12.5847 -2.3096
2 -9.72836 8.66225 2.17991
2 -12.2892 -4.04769 -2.25912
2 -2.92208 -12.5532 2.44181
2 9.42393 -8.63931 -2.21444
2 11.0675 2.99751 4.44309
2 2.80659 10.8641 -4.38681
3 -8.21095 7.90436 4.28506
2 -10.8455 -3.17465 -4.34134
2 -2.74235 -10.9683 4.56769
2 8.04762 -7.83233 -4.4357
2 9.61254 2.26009 6.70627
2 2.81471 9.41408 -6.61811
2 -2.88723 -9.63345 6.83795
2 6.69083 -6.91581 -6.60367
2 8.15649 1.41562 8.86282
2 2.84625 7.87624 -8.7881
2 -5.59185 6.37353 9.01471
2 -8.30674 -1.41036 -8.88287
2 5.24921 -6.21535 -8.81992
2 6.76606 0.828278 11.162
2 2.92 6.22802 -11.1108
2 -4.32971 5.53836 11.3379
1 -7.97553 1.44588 -11.0431
2 -2.73654 -6.58875 11.1553
2 4.06459 -5.67309 -11.1051
2 10.997 7.90918 -2.17862
2 -1.32856 13.5785 2.40887
2 -12.344 5.64136 -2.39844
2 -10.9435 -8.05649 2.17332
1 1.03087 -13.48 -2.21078
2 12.4131 -5.33972 2.22268
2 1.26219 2.38425 13.3276
2 2.73132 -0.0310384 -13.3379
3 9.51484 8.58863 -4.46041
1 -2.59501 12.5559 4.39994
2 -12.2288 4.02231 -4.62202
2 -9.54127 -8.8769 4.31528
2 2.6324 -12.6922 -4.55645
2 12.4709 -3.96537 4.57985
2 -1.45663 2.14254 13.3862
3 1.45837 2.35302 -13.3944
2 11.1666 6.36401 2.3025
2 -0.180897 12.6795 -2.1278
1 -11.1451 6.29422 2.16307
2 -11.0756 -6.35682 -2.11304
2 -0.19235 -12.5169 2.27069
1 10.8899 -6.27591 -2.14102
2 9.60313 5.60664 4.30312
2 0.0724074 11.0595 -4.3925
3 -9.71237 5.43078 4.23061
2 -9.63554 -5.43097 -4.37825
2 -0.00920203 -11.0715 4.55765
2 9.40518 -5.58212 -4.40615
2 8.30798 4.73941 6.5335
2 0.0818476 9.42605 -6.78931
2 -8.43233 4.61897 6.63284
2 -8.25302 -4.44172 -6.55264
2 -0.0452311 -9.5951 6.92653
1 8.10793 -4.85583 -6.65139
2 6.92264 3.83712 8.90987
3 0.158747 7.92065 -8.94407
2 -6.97667 3.89975 8.8987
2 -6.82953 -3.72418 -8.77806
2 -0.000108606 -8.05876 9.19747
2 6.84397 -3.96985 -8.73292
2 5.57701 3.06707 10.9835
1 0.312578 6.17599 -11.0065
2 -5.56608 3.24135 11.2565
2 -5.74546 -2.90357 -10.9468
2 -0.0283693 -6.38079 11.2509
2 5.45262 -3.35349 -10.9525
2 9.60603 10.4002 -2.11692
2 -4.12792 13.2624 2.27623
2 -13.7365 3.21852 -2.2096
2 -9.55783 -10.3611 2.24896
2 4.02335 -13.2823 -2.28573
2 13.7352 -3.17099 2.37185
2 -0.135227 4.68732 13.3316
2 4.13055 2.25848 -13.5407
3 9.78252 8.66312 2.09935
2 -2.83717 12.8024 -2.25914
2 -12.2999 3.83518 2.24512
2 -9.8041 -8.50478 -2.05296
2 2.71785 -12.5781 2.27908
2 12.3315 -3.92606 -2.14044
2 8.20829 7.86983 4.38142
2 -2.84444 11.1234 -4.45186
2 -10.9122 3.10384 4.43581
2 -8.3275 -7.81691 -4.27096
2 2.81697 -11.0342 4.57097
2 10.8629 -3.12107 -4.42401
2 6.98214 7.23944 6.65081
2 -2.85324 9.47405 -6.76167
3 -9.67056 2.28018 6.44242
2 -7.03044 -6.77301 -6.53684
2 2.69147 -9.51234 6.72315
2 9.58815 -2.2763 -6.78275
2 5.60335 6.21554 8.67674
2 -2.56921 7.95231 -9.0074
2 -8.2256 1.46788 8.81262
2 -5.42748 -6.2738 -8.8164
2 2.70872 -7.96523 8.97933
2 8.14731 -1.60078 -9.05239
2 4.08964 5.43709 11.3107
2 -2.7479 6.23897 -11.1937
2 -6.75571 0.768344 11.1214
2 -4.12352 -5.59273 -11.1738
2 2.78474 -6.26003 11.0985
2 6.71612 -0.935982 -11.1756
2 8.1618 10.898 2.12375
2 -5.52989 12.7537 -2.42059
2 -13.8177 1.62366 2.18013
2 -8.4015 -11.0278 -2.27096
2 5.38933 -12.5199 2.27516
3 13.638 -1.53642 -2.03767
2 6.86749 10.2897 4.41893
2 -5.43468 11.095 -4.52169
2 -12.2914 0.750066 4.44586
2 -7.0027 -10.2016 -4.34397
2 5.56186 -10.9271 4.4143
3 12.0726 -0.716377 -4.46933
2 5.5513 9.43866 6.70598
3 -5.54732 9.57359 -6.79208
1 -10.9048 -0.346267 6.53752
1 -5.55246 -9.48216 -6.84477
2 5.36032 -9.37889 6.65326
2 11.0333 0.12595 -6.69578
3 4.27405 8.56433 8.8297
1 -5.6082 7.73506 -8.89355
2 -9.52229 -0.984936 8.82657
2 -4.17173 -8.65025 -9.16334
2 5.46982 -7.91894 8.98327
2 9.60242 0.757865 -8.98813
2 2.77714 7.83618 11.1381
2 -5.51228 6.17524 -10.8668
2 -8.10615 -1.7512 11.2155
1 -2.88641 -7.92185 -11.2489
2 5.42613 -6.38966 11.0643
2 8.33768 1.4852 -11.0949
2 19.1378 0.036898 0.163282
2 9.45002 16.6654 -0.145832
2 -9.60855 16.7442 0.179944
2 -19.142 -0.104445 0.0941242
2 9.63223 -16.5567 -0.121199
2 9.36282 -5.41591 15.5574
2 0.170171 11.2323 15.6752
2 -9.55695 -5.71227 15.8688
2 -0.214496 -10.9589 -15.6942
2 9.63783 5.61103 -15.7275
2 -9.1873 5.36174 -15.592
2 17.645 -0.678905 2.22115
2 17.7095 0.761984 -2.06188
2 6.64935 16.6093 0.135584
1 8.17734 15.7218 2.04911
2 9.60319 15.2138 -2.49073
2 -10.7873 14.3377 -0.129042
1 -8.2554 15.7269 2.07366
2 -9.36276 15.1397 -2.17573
2 -17.8898 -2.40489 0.151107
2 -17.8266 -0.837568 2.37663
2 -17.879 0.812506 -2.00959
1 -7.04591 -16.8449 -0.0543019
2 -9.65581 -15.2648 2.39604
2 -8.32375 -15.991 -2.23397
3 10.9881 -14.2118 0.0136767
2 9.47302 -15.1421 2.21705
2 8.0604 -15.7565 -2.35401
2 8.13747 -2.9516 15.4307
2 6.75224 -5.61107 15.6
2 -1.21477 8.88509 15.6553
2 1.43413 -8.57614 -15.7035
2 -1.55683 -8.59087 -15.4809
1 6.86058 5.64903 -15.4915
2 16.6745 4.84049 -0.157597
1 16.4261 -1.53717 4.47734
2 16.3429 1.61856 -4.35242
2 3.95888 16.5293 -0.0195203
1 6.76304 15.0996 4.14083
3 -12.2433 11.9428 -0.00548613
2 -6.743 14.8772 4.48838
2 -16.2992 -4.82733 -0.19769
2 -16.2861 -1.75022 4.60088
2 -16.3407 1.56028 -4.34701
3 -4.05244 -16.3263 0.0614111
2 -9.60237 -13.7719 4.691
2 12.3251 -11.6744 0.0708004
2 9.31226 -13.3619 4.28915
2 6.86338 -14.9815 -4.58679
3 6.76231 -0.742439 15.6064
2 4.09853 -5.3353 15.5228
2 -2.75741 6.44583 15.6108
2 2.74549 -6.41305 -15.6886
3 3.97525 5.24413 -15.7044
2 15.51 7.08182 0.140204
2 14.961 -2.42721 6.73132
1 15.0292 2.4699 -6.52495
2 1.37403 16.6306 -0.0911251
2 5.45357 14.3751 6.58787
2 9.41872 11.8912 -6.66854
2 -13.7065 9.58162 0.0222246
2 -9.54167 12.0269 -6.90876
2 -15.0408 -7.16399 -0.112888
2 -15.0456 -2.63289 6.64124
2 -15.1997 2.49088 -6.73394
2 -1.64272 -16.5075 -0.125233
1 -9.531 -11.9646 6.75511
2 -5.56263 -14.0064 -6.53322
2 13.8526 -9.46072 0.292584
2 9.50604 -11.8064 6.62924
2 5.26845 -14.1385 -6.76278
2 5.56807 1.6075 15.6385
2 1.53024 -5.32916 15.7401
2 -4.17658 3.96023 15.869
2 4.14066 -3.8724 -15.5013
2 -4.21642 -3.94419 -15.5438
2 1.40818 5.48284 -15.5681
2 13.8917 9.50275 -0.0183506
2 13.6904 -3.19639 8.92132
2 13.7012 2.92734 -9.02744
2 -1.40633 16.5494 -0.000184576
2 4.13463 13.4352 9.04307
2 9.68132 10.3962 -8.80029
2 -4.07927 13.4613 8.76198
2 -9.45409 10.3007 -9.09949
1 -13.7311 -3.37538 8.74093
2 -13.7373 3.35603 -8.98057
2 1.05393 -16.2677 -0.165981
2 -9.51783 -10.4886 9.13574
2 -4.37779 -13.2473 -8.74368
2 15.1726 -7.07311 0.226169
2 9.63863 -10.1391 8.87872
3 3.86681 -13.5401 -8.84819
2 3.99487 3.81898 15.5104
2 -1.31925 -5.46505 15.6618
2 -5.59879 1.70299 15.7431
2 5.52402 -1.58344 -15.6011
2 -5.3739 -1.70878 -15.4411
2 -1.26528 5.26867 -15.4341
1 12.1848 11.9231 -0.0725448
2 12.4784 -4.07597 11.0613
1 12.4588 3.94911 -11.1065
2 -4.10553 16.7572 0.0303232
2 2.75284 12.4637 11.0911
2 9.53568 8.61871 -11.2234
3 -16.4393 4.7611 -0.0859597
2 -2.66998 12.609 11.1352
2 -9.55537 8.70158 -11.3055
2 -12.1879 -11.8637 -0.0832681
2 -12.3764 -4.14772 11.1232
2 -12.3893 4.05345 -11.1879
1 3.96272 -16.3706 -0.162157
2 -9.65112 -8.71258 11.1758
2 -2.77985 -12.7333 -11.2707
2 16.6887 -4.6461 0.0766229
2 9.72016 -8.61764 11.1467
2 2.56294 -12.4744 -11.169
2 2.70792 6.47231 15.5271
2 -4.07254 -5.41615 15.6679
2 -6.84493 -0.809139 15.8349
2 6.85811 0.746062 -15.6731
2 -6.84332 0.753525 -15.3958
2 -4.07851 5.57119 -15.5964
2 10.8079 14.3223 -0.117246
3 10.8204 -4.60527 13.2035
2 10.8636 4.75575 -13.3448
2 -6.83916 16.6543 -0.226718
2 1.36837 11.6888 13.4512
1 9.60458 7.29667 -13.5638
2 -17.499 2.34156 0.189932
2 -1.46548 11.8891 13.3368
2 -9.6222 7.17055 -13.4214
2 -10.8115 -14.3803 0.115544
1 -11.0315 -4.9129 13.2959
2 -10.8193 4.66704 -13.4776
2 6.63545 -16.585 -0.0725041
2 -9.5114 -7.23504 13.4402
2 -1.55475 -11.9549 -13.5573
2 17.8095 -2.32339 0.0437001
2 1.13267 -11.6193 -13.4877
1 1.3307 8.87918 15.6632
2 -6.7729 -5.71835 15.7529
2 8.29249 3.23102 -15.4582
1 -7.97917 3.00091 -15.583
3 -6.68175 5.60758 -15.3843
2 5.23763 15.75 2.2276
2 -11.0231 12.8683 -2.24707
2 -5.68969 -15.5 -2.17189
2 10.8163 -12.5478 2.09855
2 5.38628 -3.13307 15.4612
2 0.059082 -6.34988 -15.5426
2 4.03645 15.0127 4.36926
2 -10.7895 11.1743 -4.55902
2 -14.9444 -3.91334 4.32553
2 -4.27542 -14.91 -4.39034
2 10.7905 -10.9545 4.36289
2 2.60268 -2.96359 15.5836
2 -1.23072 -3.90912 -15.4803
2 13.8188 4.84047 -6.67171
1 2.7217 14.226 6.69111
2 -10.8508 9.72428 -6.67262
2 -13.913 -4.9322 6.60496
2 -2.81446 -14.2396 -6.64973
2 10.9878 -9.49648 6.56026
3 -0.0245665 -3.17623 15.5989
2 -2.76377 -1.62202 -15.618
2 12.3585 5.53942 -8.96607
2 1.23955 13.4407 8.9939
2 -10.8805 8.04036 -9.17885
2 -12.3784 -5.72227 9.02684
2 -1.53851 -13.4648 -8.96354
2 11.0973 -7.98336 9.05095
2 -2.75425 -3.11993 15.82
2 -4.23128 0.770301 -15.3093
1 11.0098 6.48599 -11.2334
2 -0.0869215 12.7619 11.1863
2 -10.9982 6.40583 -11.3522
3 -10.9789 -6.45323 11.23
2 -0.190245 -12.6318 -11.121
2 11.1176 -6.29306 11.1886
2 -5.35281 -3.17763 15.9424
2 -5.41984 3.18235 -15.3591
2 16.4164 1.69855 2.31709
2 -9.58345 13.4479 2.33599
2 -16.4903 -1.49906 -2.00449
2 -6.94548 -15.0867 2.2186
2 9.50742 -13.4393 -2.22477
2 15.0563 0.737479 4.53326
2 6.83402 13.2973 -4.43376
3 -8.28052 12.6093 4.32817
2 -14.9156 -0.909107 -4.34659
2 -6.80713 -13.4036 4.35934
2 8.22291 -12.4985 -4.53822
2 13.672 -0.109983 6.83283
2 6.98047 11.7635 -6.7413
2 -6.67748 11.8489 6.52911
2 -13.7292 0.182784 -6.67623
1 -6.84894 -11.9825 6.70194
2 6.7383 -11.8553 -6.78005