3398
 Atoms. Timestep: 6000
2 -2.56392 3.51653 -0.656062
2 -3.34822 -1.72993 0.131889
2 -0.598905 -1.13461 0.0246872
2 1.04708 -3.34727 0.078728
2 0.880272 2.00018 0.00604524
3 0.00308833 0.610755 2.18271
2 -2.74356 1.8425 -2.71815
2 5.19907 -0.20441 -0.213619
2 2.33159 4.33614 -0.188294
2 -6.45815 0.859889 -0.521962
2 -1.79978 -4.00959 0.267825
2 2.73668 -5.82524 -1.79898
2 2.48333 -2.10197 4.43337
2 -0.0777597 2.35778 4.10515
2 -3.16095 -1.12829 6.57532
2 0.182319 -2.71872 -4.42425
2 1.52583 1.52812 -4.28366
2 3.46078 2.16432 -0.173521
2 3.68077 -0.979091 2.07175
2 3.40636 0.305237 -2.24107
2 -0.268962 4.35822 -0.21666
2 1.1572 3.59362 1.99009
2 -1.34226 2.78887 1.63644
2 -4.04368 3.99152 -2.81562
1 -4.70661 -2.49164 2.45061
2 -1.8235 -2.24841 2.13789
2 -0.646688 -2.96816 -1.99853
2 2.1501 -0.251294 0.0973754
2 3.47414 -2.59561 0.0484122
2 1.98326 -2.13721 -2.16517
1 1.42003 0.217068 4.33936
2 -0.395416 -2.72234 4.47661
2 -1.87623 -0.376095 4.05418
2 0.565068 0.15209 -1.98032
2 -0.911614 0.657677 -4.27155
3 2.50025 1.35997 2.20048
2 -0.273578 2.75386 -2.39557
2 -2.63925 0.431616 1.79867
2 -2.17661 -0.585763 -1.97334
2 0.996965 -1.8925 2.26784
2 7.89299 -0.128124 0.0191258
2 3.8214 6.83624 -0.0167896
2 -3.82386 5.82081 -0.797007
2 -2.45344 -6.80343 0.596149
2 4.00898 -7.51138 0.106799
2 4.17839 -2.94703 6.68228
3 0.0227062 4.07031 5.97747
3 0.228464 -4.48077 -6.24685
2 -3.78204 2.57306 -5.47001
2 6.66983 2.14935 0.0221885
2 6.48012 -0.818306 2.28846
2 6.56793 0.671827 -2.32088
2 1.24306 6.71837 -0.0899475
2 2.64661 6.06495 2.01332
2 3.59772 5.17521 -2.22864
2 -5.24109 3.4497 -0.542309
2 -2.59519 5.30975 1.65137
2 -6.21208 -1.72481 0.249708
2 -3.8244 1.16054 -0.347992
2 -5.26172 1.63888 -2.8352
2 0.227936 -5.42681 -1.69852
2 -3.04924 -4.71231 2.47309
3 -2.47635 -5.70044 -1.69476
1 5.1359 -5.04369 0.152445
2 2.64026 -0.570737 6.51902
2 1.08105 -3.17589 6.55453
2 -1.53821 1.30682 6.34525
2 1.64136 -2.06787 -6.50439
2 3.10397 1.78102 -6.69807
2 5.1332 4.40283 0.0483807
2 5.21855 -1.83823 4.43677
2 5.11438 1.41196 -4.49351
2 -1.40128 6.9823 -0.0136752
2 1.32848 4.97738 4.08709
2 3.61026 3.67858 -4.66304
2 -1.59275 4.58654 4.06272
2 -4.62124 -4.00382 0.267355
2 -6.05256 -3.2633 4.90261
2 -1.07349 -5.00932 -3.98221
2 6.43974 -2.52904 0.119063
2 3.86191 -4.33773 4.47369
2 1.51864 -5.17509 -4.22402
2 1.05395 1.72102 6.37288
2 -0.120505 -0.88055 6.37724
2 3.19899 -0.310545 -5.13573
2 -2.52254 0.477701 -6.63634
2 -1.08533 2.52992 -6.27078
2 4.99811 2.76133 -2.33006
2 -0.0103565 5.95659 2.15531
2 5.17045 -3.35605 2.15547
2 0.512542 0.381183 -6.42723
2 4.99055 1.36357 2.22671
2 1.01953 5.28557 -2.24437
2 -3.98866 2.82489 1.66377
2 -4.94792 -0.869907 -1.90293
2 0.012721 -4.38126 2.36107
2 4.2507 -3.7978 -2.09742
2 3.96894 0.482139 4.39866
2 0.799842 3.95665 -4.7901
2 -2.64262 2.1363 3.9789
2 -3.67861 -0.0670026 -4.26673
2 -3.10944 -2.95569 4.39637
2 2.91959 -2.86147 -4.54022
2 3.87363 3.60402 2.2534
2 -1.62005 5.45134 -2.20579
2 -3.33714 -3.25147 -1.97566
2 1.65643 -6.12875 0.74689
1 5.28417 -1.56573 -2.59293
3 -1.67568 3.68355 -4.20215
3 -2.40541 -2.13814 -3.95966
2 2.67567 -4.05692 2.16528
2 10.9459 -0.233761 0.0165123
2 5.16013 9.08567 0.0935916
2 -5.49906 9.34062 -0.229088
2 -9.87653 -0.302267 -0.315237
2 5.64529 -3.5446 9.07207
1 -3.49322 0.157708 9.15426
2 -0.122007 -6.28274 -8.20701
2 5.24638 3.18376 -8.9245
2 -5.0824 3.34789 -8.89535
2 9.38263 2.18806 -0.120744
2 9.2951 -1.05423 2.26108
2 9.42446 0.771241 -2.24056
1 3.90716 8.34792 2.05479
3 5.28692 7.63282 -2.27995
2 -6.5496 6.91971 -0.188078
2 -4.29223 7.47633 1.33084
2 -5.32634 7.89921 -2.48676
2 -7.97988 -1.25174 -1.6607
2 -8.03735 0.115177 1.54288
2 -8.81225 1.00737 -2.31781
2 -4.80795 -7.14221 2.0675
2 -3.93135 -7.98225 -1.55934
2 6.68073 -7.20289 0.187796
2 5.4952 -8.04434 2.47111
1 5.36818 -10.3813 -1.79419
2 4.09122 -1.2339 8.98131
2 2.94263 -3.5776 8.84002
2 -1.40145 3.18529 8.44832
2 1.21164 -3.84743 -8.77955
2 -1.34727 -3.74803 -8.30261
2 2.65132 3.06191 -9.0568
2 8.00206 4.49607 0.0307462
2 8.07915 1.58613 -4.53019
2 -0.051081 9.21007 -0.35784
2 2.55667 7.61291 4.25039
2 5.29392 6.14376 -4.35053
2 -7.71108 4.62462 -0.00224256
1 -5.89493 6.65578 -4.42509
2 -7.61429 -3.77133 0.599109
2 -7.07861 -2.02996 2.92231
2 -7.68051 1.79289 -4.45953
2 0.00617429 -8.38851 0.832244
2 -4.53821 -5.55007 4.37371
2 -2.41537 -7.35034 -3.81872
2 8.27462 -4.90333 -0.080024
2 5.37344 -6.66566 4.55654
2 2.6909 -7.7716 -4.03314
2 2.38022 1.16237 8.69029
2 0.150216 -3.77253 8.82198
2 2.82356 -1.47677 -8.78028
2 -2.59846 -1.306 -8.58162
2 0.282622 3.33803 -8.39775
2 6.45692 6.67167 0.117812
2 6.92424 -2.39743 6.56302
2 6.67461 2.30628 -6.83979
2 -2.79696 9.47103 -0.124126
2 1.25914 6.53951 6.31557
2 5.42414 4.54954 -6.56151
2 -9.13308 2.34424 0.0583537
2 -1.49231 6.27496 6.26802
1 -4.87292 4.9331 -6.33286
3 -6.4204 -6.11182 0.209216
2 -6.42098 2.69899 -6.70703
2 2.44852 -9.77038 0.0115308
2 -5.69392 -1.77448 7.21149
2 -1.28242 -6.66294 -6.03874
2 9.32156 -2.4274 -0.0147435
2 5.61096 -5.05856 6.61941
2 1.29769 3.51956 8.60104
2 -3.75537 -2.71865 8.76356
2 4.17147 0.856775 -8.96676
2 -3.84515 0.941575 -8.91293
2 -2.46177 3.29627 -8.73215
2 7.9765 3.10355 -2.22677
3 1.23154 8.27434 2.10414
2 -6.15156 5.41259 -2.21959
2 -1.18511 -7.91646 -1.57673
2 6.48951 -5.64802 2.29882
2 1.24765 -1.44035 8.73923
2 0.117484 -1.40133 -8.38823
2 6.44303 3.61484 -4.39113
2 -6.18898 4.01299 -4.24035
2 -6.03436 -4.6322 2.49491
2 0.154397 -7.48594 -3.85914
2 6.67677 -3.99418 4.51148
2 -1.51159 -1.56734 8.86285
2 -1.12363 0.990019 -8.68641
2 7.95309 1.48234 2.3204
2 2.63866 7.59717 -2.25722
2 -5.51619 5.16766 1.38397
2 -2.5011 -7.26974 3.34958
2 5.40151 -6.31683 -2.03678
2 6.62727 0.522334 4.46946
2 2.49389 6.18184 -4.5506
2 -6.97237 -0.540347 -4.06553
2 -1.55879 -5.04216 4.63537
2 4.17102 -5.37303 -4.21069
2 5.32325 -0.187832 6.67051
2 2.44695 4.52637 -6.80803
2 -2.93643 3.58992 6.24284
2 -5.19053 0.401642 -6.32287
2 -4.23209 -4.2435 6.61679
2 2.8161 -4.4774 -6.50841
2 6.47693 5.22445 -2.21224
2 -1.90667 8.03245 2.2445
2 -7.63983 3.16657 -2.11662
2 1.52444 -8.05096 -1.55264
2 7.95611 -3.30131 2.21875
2 -0.218918 0.768593 8.64053
2 1.32581 0.78651 -8.92906
2 6.54017 3.70501 2.1537
2 0.0429155 7.79556 -2.4787
2 -6.44841 -3.49299 -1.91389
2 0.0656498 -6.92644 2.86673
2 6.89021 -4.01269 -2.30227
3 5.43554 2.78558 4.26008
2 -0.404688 6.14751 -4.73999
2 -5.2471 1.78708 3.79573
2 -5.03046 -2.47461 -4.0954
2 1.16247 -4.84351 4.55332
2 5.58937 -3.20685 -4.50214
2 4.00482 2.05406 6.54847
2 -4.08328 1.30975 6.22902
2 -3.81538 -1.9838 -6.28327
2 -1.65271 -3.23059 6.77882
3 4.34625 -2.38218 -6.65544
2 -2.66588 7.74037 -2.37001
2 -6.73753 2.52503 1.5448
2 2.68235 -8.28252 2.22334
1 8.0958 -1.55931 -2.35306
2 4.07977 5.15066 4.18029
2 -3.14378 5.92895 -4.43368
2 -5.34319 0.221678 1.84805
2 -3.80144 -4.84078 -3.85723
2 2.73583 -6.79653 4.26635
2 6.66836 -0.662491 -4.65319
2 2.74216 4.22387 6.34114
2 -1.94638 5.17616 -6.65732
2 -5.23425 -0.743402 4.49071
2 -2.53834 -4.26965 -6.21509
1 2.38006 -5.47915 6.56197
2 5.23738 0.0643628 -6.79365
2 13.5477 -0.262031 -0.146572
2 6.58881 11.6147 -0.0157882
2 -6.77981 11.6239 -0.330577
2 -12.7226 -0.233264 0.179013
2 -6.81399 -11.4576 0.458748
2 6.85612 -11.5702 0.0260668
2 6.84913 -4.32545 11.1693
3 -0.446796 7.34742 10.7364
2 -6.93914 -3.60259 12.0154
2 -0.214187 -7.94152 -10.3268
3 6.67594 4.0067 -10.9861
2 -6.44769 4.05131 -11.2807
2 12.0686 2.24283 -0.0550329
2 12.2153 -1.05234 2.1712
3 12.0375 0.60786 -2.33162
2 5.22005 10.7968 2.01073
2 6.59992 9.88694 -2.09102
2 -5.43723 11.0516 1.89027
2 -6.80359 10.0052 -2.97311
2 -11.4399 -2.22125 -0.961065
2 -11.1413 -1.40855 1.73686
2 -11.4821 0.147829 -2.32525
2 -3.95657 -11.3111 0.52581
2 -5.9583 -9.37842 2.17787
2 -5.32591 -10.4981 -1.54447
1 9.49529 -8.66907 -2.11321
2 6.92373 -10.4384 2.34635
2 5.27735 -1.90067 11.1136
2 4.22073 -4.27135 11.3813
2 -1.46462 4.88088 10.5664
2 1.03091 -5.60004 -10.6855
1 -1.65481 -5.55821 -10.7311
2 4.02898 4.03817 -11.3712
2 10.7353 -1.82973 4.48459
2 10.6143 1.70225 -4.37068
2 1.24909 11.6156 -0.216144
1 3.57355 9.76364 4.35688
2 6.74032 8.41988 -4.39301
2 -9.27725 7.15069 -0.200972
2 -4.1902 9.37309 3.48214
2 -10.1514 -3.77551 1.10124
2 -9.34695 -0.714018 3.68354
2 -10.3323 1.70583 -4.43029
2 -1.1498 -10.8748 0.836309
3 -5.83882 -8.07732 4.51365
2 -3.9618 -9.69559 -3.65328
2 9.46014 -7.44372 -0.05211
2 6.86217 -8.74869 4.60066
3 4.05179 -9.9386 -4.07915
2 3.99042 0.512841 11.027
2 1.43797 -4.26321 10.9729
2 -2.94423 2.38646 10.4281
2 2.5959 -3.34654 -10.958
3 -2.81909 -3.05319 -10.6494
2 1.03235 4.07691 -10.9709
2 9.42824 6.88796 0.0473284
3 9.55842 -2.61604 6.84328
2 -1.48335 11.5511 -0.410626
2 2.4854 9.04278 6.49565
2 6.86735 7.05092 -6.74954
2 -10.572 4.61539 -0.230226
2 -3.01859 8.52673 5.89723
3 -6.32156 7.40291 -6.99954
2 -8.96772 -6.28118 0.209422
2 -7.56479 -1.04948 5.56425
3 -9.06413 2.77972 -6.53489
2 1.20992 -12.095 -0.00910333
2 -5.67352 -6.6547 6.67402
2 -2.9541 -9.05296 -6.01303
2 10.775 -4.65637 -0.00516945
2 6.84685 -7.4148 6.80747
2 2.64611 -9.47878 -6.29203
2 2.66392 2.73212 11.0722
2 -1.38732 -4.27578 10.9523
1 -3.33577 0.0805891 12.949
2 3.89106 -0.788262 -11.3066
2 -4.19519 -0.725039 -10.8996
2 7.88135 9.15755 -0.0349546
2 8.22231 -3.30289 9.1152
2 8.0616 3.18098 -9.00693
2 -4.20799 11.9398 -0.283208
2 0.990023 8.20237 8.69548
2 6.65152 5.39655 -8.84187
2 -11.8441 2.21775 -0.0369381
2 -1.70656 7.97799 8.41448
2 -6.48951 5.64733 -9.04311
2 -7.72959 -8.65696 0.460837
2 -5.84363 0.899848 8.24085
2 -7.74737 3.42919 -8.81524
2 4.05708 -11.9206 0.143728
2 -5.32169 -5.46705 8.89868
2 -1.55061 -8.65769 -8.15269
2 6.74315 -5.75471 8.892
2 1.20119 -8.34503 -8.12039
2 1.15681 5.18368 10.8019
2 -4.20894 -4.55889 10.8979
2 -6.15988 -2.61045 9.69524
2 5.18474 1.76243 -11.1813
3 -5.34839 1.54851 -11.0387
2 -3.78117 3.78036 -11.0186
2 10.6947 3.04437 -2.18614
2 2.43213 9.25791 -0.0941381
2 -7.81808 7.54805 -2.39408
2 -2.49022 -10.3877 -1.41413
2 8.19836 -8.0353 2.30598
2 2.63244 -2.01846 11.1646
2 -0.298242 -3.00669 -10.6225
2 9.30584 4.07001 -4.40906
2 1.03919 9.80651 4.1643
2 -8.41782 -4.26922 3.13255
3 -1.31898 -9.63733 -3.70231
2 8.15804 -6.55818 4.4834
2 -0.151485 -2.11096 11.2976
2 8.13353 4.7241 -6.64631
2 -0.156697 8.84155 6.42172
2 -7.48296 5.04497 -6.40767
2 -7.07103 -5.58023 4.98447
2 -0.00934953 -9.12374 -5.90758
2 8.15869 -4.92575 6.7179
2 -2.97784 -2.29225 11.1222
2 -2.67473 1.43238 -11.2971
2 10.7594 1.35814 2.25952
2 3.99917 9.99811 -2.28725
2 -6.64348 8.74944 2.00318
2 -10.9221 -3.16698 -3.32423
2 -3.2153 -9.28873 1.82071
2 6.93409 -8.58438 -2.02272
2 9.27179 0.348706 4.52583
2 3.98091 8.52831 -4.52314
2 -5.39385 6.83274 3.64412
2 -9.69517 -0.99617 -3.95056
2 5.36421 -7.88912 -4.38277
2 8.08383 -0.143114 6.8551
2 4.10275 6.79183 -6.68579
2 -4.16822 5.88705 5.79057
3 -7.8188 0.298512 -6.50633
2 -2.95472 -6.68648 6.23623
2 3.912 -6.97831 -6.34599
2 6.65062 -1.03043 8.82202
2 3.99133 5.46761 -8.92831
2 -3.01964 5.58219 8.32533
2 -6.61063 1.0791 -8.73659
2 -2.46181 -5.05188 8.55504
2 2.45405 -6.128 -8.48767
2 9.3633 5.24378 -2.01821
2 -0.412307 10.4693 2.06131
3 -9.21492 5.41601 -2.06961
2 0.173586 -10.3609 -1.61039
2 9.52976 -5.70262 2.24638
2 1.12732 0.194202 10.884
2 1.0675 -0.887854 -10.9708
2 -1.57069 9.71396 4.16125
2 -8.97764 4.1432 -4.26088
2 -7.50245 -7.06091 2.43249
2 1.50674 -9.97376 -3.93083
2 9.36611 -4.12132 4.57974
2 -1.56278 0.109129 10.9274
1 -1.5113 -0.777003 -10.9413
2 9.38845 3.77558 2.1707
2 1.32755 9.98591 -2.28268
2 -7.95521 6.46062 2.0952
2 -9.12736 -3.56338 -1.47214
2 -1.0082 -9.43132 3.13393
2 8.28628 -6.26147 -2.25867
2 7.95678 2.97649 4.1933
3 1.39477 8.68829 -4.51304
2 -6.68685 4.21081 3.58207
1 -8.59984 -3.79263 -3.98744
2 -0.708673 -7.89807 5.34105
2 6.69371 -5.6382 -4.54854
3 6.68219 2.06967 6.8209
2 1.18847 7.17922 -6.61689
2 -6.45843 -1.94655 -6.30628
2 -0.411389 -5.54063 6.89422
2 5.38928 -4.72705 -6.72204
2 5.26342 1.39333 8.8888
2 1.29628 5.86737 -9.02706
2 -4.33582 2.91323 8.27546
2 -5.26991 -1.49782 -8.66126
2 4.02303 -3.93093 -8.78457
2 7.88809 7.42764 -2.09639
2 -10.5814 3.05745 -2.22899
2 3.10009 -11.2696 -2.10247
2 10.7411 -3.35016 2.31334
1 0.0148075 2.5124 10.7262
2 2.62467 1.55995 -11.1075
2 8.25574 6.23554 2.32608
1 -1.11503 8.76594 -4.55992
2 -9.15019 3.97275 2.17482
2 -7.86134 -5.81191 -1.92032
2 1.12553 -10.5282 2.25217
2 9.54344 -3.95083 -2.32908
2 6.69541 5.27109 4.37876
1 -3.87491 8.49028 -4.52155
2 -6.33186 -4.91018 -4.05625
2 1.51622 -8.99303 4.5386
3 8.14908 -2.95397 -4.60953
2 5.31843 4.2817 6.37008
2 -5.71445 3.64813 6.0811
2 1.26159 -7.83375 6.8838
2 6.82303 -2.39785 -6.76309
2 4.00455 3.73403 8.73452
2 -1.1106 5.4729 -9.32989
3 -3.81702 -3.84948 -8.28639
2 1.48884 -6.03597 8.84103
2 5.43344 -1.59463 -8.87242
2 6.8255 8.42669 2.26349
2 -4.03175 10.1929 -2.49183
2 -10.4685 1.18808 2.01389
2 -6.50821 -8.07892 -1.72153
2 4.15185 -10.5054 2.32585
2 10.62 -1.57879 -2.20919
2 5.28844 7.46557 4.05691
2 -8.00986 1.78877 3.74039
1 -5.04027 -5.87405 -1.84385
3 4.18044 -9.11419 4.445
2 4.27137 6.88305 6.35332
2 -3.67511 7.23385 -6.80642
3 -6.67397 1.31431 5.96326
1 -4.7741 -5.29639 -6.23467
2 4.04741 -7.5983 6.60002
2 8.24399 -0.0259237 -6.89648
2 -3.66495 5.72455 -9.0203
2 -2.63527 -6.20567 -8.41546
2 4.18374 -6.02492 8.85194
2 6.89814 0.871779 -9.12721
2 16.0969 0.153228 -0.340513
1 7.94718 13.9439 -0.170649
2 -8.17608 13.8742 -0.201826
2 -15.174 0.421102 0.541426
2 -7.93756 -13.7693 0.569592
2 8.1179 -14.0612 0.160511
2 8.25051 -4.70267 13.3669
2 -0.478779 8.83722 12.761
2 -8.22736 -5.94186 12.4091
2 -0.0893889 -9.46762 -12.6626
2 7.93473 4.72957 -13.1953
2 -7.98707 4.62318 -13.5694
2 14.7591 2.39957 0.0224907
2 15.0203 -0.920036 2.02781
2 5.15607 13.8476 -0.0686154
2 6.49973 12.9619 2.1857
2 8.21716 12.3348 -2.26001
2 -9.60034 11.5122 -0.394618
2 -6.76486 13.2837 2.11287
2 -8.43016 12.4165 -2.57477
3 -13.9701 -2.27084 -0.713691
2 -13.6621 -0.889639 2.5347
2 -13.9965 1.18322 -1.71804
2 -5.04916 -13.7769 0.692994
2 -8.21458 -12.0275 2.55237
2 -6.58134 -12.8504 -1.58806
2 9.48536 -11.7477 0.0130348
2 8.16421 -12.5877 2.36594
2 6.72056 -13.2915 -1.95166
2 6.5145 -2.40294 13.4389
2 5.48271 -4.91618 13.5063
2 -1.74545 6.47836 12.6845
2 1.14689 -7.0717 -13.0237
2 13.4676 4.55188 0.105202
2 13.5366 -1.73423 4.27748
2 13.468 1.58884 -4.44146
2 2.42967 14.0847 -0.329944
2 4.9225 12.1513 4.46441
2 8.12945 10.8399 -4.51425
2 -10.7965 9.21961 -0.360784
1 -5.46446 12.9734 4.52983
2 -12.8274 -4.36152 -1.57091
2 -12.84 2.24636 -3.69832
2 -2.19617 -13.6599 0.777241
2 -7.21973 -10.3953 4.45243
2 10.9002 -9.40377 -0.0466521
2 8.24178 -10.863 4.62277
2 5.07745 -12.5426 -3.95938
2 5.05533 -0.0529309 13.2948
2 2.7264 -5.02902 13.4164
2 -3.09374 3.94721 12.5907
2 2.55305 -4.97957 -12.8775
1 -2.74511 -4.71835 -12.9461
2 2.26932 4.75367 -13.4534
2 12.0497 7.06678 0.0445367
2 12.1248 -2.50677 6.56114
2 12.0416 2.20257 -6.57611
2 -0.117804 14.0153 -0.279264
2 3.59385 11.4842 6.49837
2 8.03541 9.43859 -6.5696
3 -12.0609 6.92667 -0.283121
2 -4.38033 10.8899 5.87241
2 -7.55587 9.70904 -6.78317
2 -10.6151 -8.65516 0.518535
2 -10.2298 -1.33236 6.00371
2 -4.12396 -11.5163 -5.91203
2 12.0511 -7.01697 -0.0704278
3 8.07508 -9.70081 6.86806
2 3.97821 -11.8645 -6.16021
2 -0.114847 -5.18772 13.2147
2 3.84504 -2.52607 -13.1844
3 -4.243 -2.25733 -13.1139
2 -0.256592 4.68668 -13.1084
2 10.9669 -3.15294 8.92896
2 10.9046 3.10201 -8.75152
2 -2.73626 14.0357 -0.311702
2 2.24551 10.7901 8.78327
2 8.10142 7.91895 -8.81004
2 -13.2445 4.56037 0.125745
2 -3.06936 10.3415 8.38416
2 -7.62166 8.16707 -9.10597
2 -8.48259 -2.0651 7.94149
2 -10.4229 3.45984 -8.7512
2 2.56815 -14.2894 0.288527
2 -8.23302 -6.66255 7.19869
1 -2.99436 -10.5667 -8.80374
2 13.4275 -4.69432 0.014164
1 8.23222 -8.2216 8.9047
1 2.32214 4.33227 13.0871
2 -2.72264 -5.42301 12.9508
2 -5.29755 -1.07867 12.0247
1 5.09829 -0.0145925 -13.4003
2 9.61412 -3.97525 11.0681
2 9.406 3.90618 -11.0654
2 0.875536 10.0402 10.8583
2 8.21161 6.34949 -10.9062
2 -1.93916 9.53391 10.6222
2 -7.8349 6.28091 -11.343
1 -9.44296 -11.0207 0.551997
2 -8.80407 -3.46733 10.1518
2 -9.13371 3.98635 -11.0425
2 5.35141 -14.1964 0.181873
1 -7.3576 -5.93205 10.105
2 8.14522 -6.50839 11.1688
3 1.34928 -9.99629 -10.6552
3 0.799549 6.51999 13.0146
2 -5.8056 -5.6976 13.1182
2 6.43214 2.28616 -13.3528
2 -6.44808 2.35467 -13.2485
2 13.3215 2.89998 -2.21614
2 3.68924 13.0313 2.1565
2 -9.18813 9.87819 -2.31155
2 -12.7897 -3.38231 1.3515
2 -3.64459 -12.8241 -1.47663
3 3.94658 -2.50618 13.5111
2 -0.115567 -4.81757 -13.0798
2 11.8467 3.85208 -4.47834
1 2.16308 12.1814 4.45129
2 -8.53885 8.79486 -4.60375
2 -10.5011 -3.18921 3.84518
1 -5.1938 -12.2013 -3.58328
2 1.1569 -2.85652 13.3061
2 -1.61958 -2.4868 -12.8515
2 10.7208 4.83098 -6.59075
2 0.887403 11.4542 6.48732
2 -8.78287 7.32005 -6.66172
2 -1.49906 -11.3295 -5.76484
3 9.55016 -7.11309 6.83914
2 -1.53678 -2.9776 13.2463
2 9.48714 5.37228 -8.83568
3 -0.401969 10.4919 8.44915
2 -9.0946 5.72221 -8.97674
2 -7.09742 -4.27794 7.40463
2 -0.0010382 -10.6721 -8.33593
2 9.50578 -5.64394 8.97486
2 -4.48754 -3.20878 13.4375
2 13.5765 1.3402 2.19827
2 5.35623 12.2699 -2.33558
2 -8.218 11.1354 1.93868
3 -5.38727 -12.0656 2.59184
1 14.7448 -2.42225 6.44718
2 5.50473 10.9991 -4.47539
2 -6.69196 10.8077 4.45712
2 -4.52679 -10.2018 4.08419
2 6.68658 -10.2165 -4.0684
2 10.7038 -0.0948336 6.86978
2 5.44414 9.35889 -6.76771
2 -5.52754 8.47502 5.92713
2 -10.3971 0.160558 -6.45176
2 -4.20865 -8.95722 6.35102
2 5.34509 -9.46168 -6.56542
2 9.50336 -1.00857 9.1945
2 5.46674 7.97869 -8.90164
2 -4.44045 7.96477 8.14798
2 -9.09531 1.10524 -8.60655
3 3.88831 -8.54642 -8.53703
2 7.9443 -1.68106 11.3811
2 5.3901 6.22637 -10.9725
2 -3.14646 7.05175 10.5846
2 -7.96859 1.67835 -11.0029
2 2.44475 -7.69997 -10.489
2 0.97941 13.1112 1.98785
1 -12.611 7.69123 -2.89792
2 -11.7228 -6.10037 0.583487
1 -1.02768 -12.8017 -1.33451
2 10.7177 -8.03632 2.19765
2 2.47024 -0.461147 13.3452
2 1.09441 -2.38817 -13.0167
2 10.6562 6.24102 -4.42
1 -0.334395 12.0075 4.21466
2 -10.1979 6.48403 -4.22677
2 -10.0226 -6.49219 2.60762
2 -0.215661 -12.0322 -3.72801
3 10.7217 -6.33654 4.45893
3 -0.213083 -0.609472 13.3519
2 -0.301442 0.0417949 -13.0888
2 9.3567 7.23161 -6.3461
2 -1.7014 11.135 6.24814
2 -10.2738 5.19894 -6.72733
3 -8.71261 -3.43367 5.69714
1 2.65808 -10.6781 -8.45824
2 10.9061 -4.83696 6.71784
2 12.2617 3.6882 2.21028
2 2.74735 12.4196 -2.48664
2 -9.37559 8.80003 2.03228
2 -12.4411 -5.27057 -3.94022
2 -2.60677 -11.7069 2.77502
2 10.6707 2.87624 4.43952
2 2.78571 10.8851 -4.75462
2 -7.9818 8.00508 4.31632
2 -10.6886 -4.36036 -5.90396
2 -2.14883 -10.4946 5.15655
2 8.14486 -7.87607 -4.4216
2 9.2889 2.17664 6.59164
2 2.75314 9.43098 -6.75031
2 -6.99328 5.95477 5.71919
2 -9.14179 -2.04195 -6.27001
2 -1.961 -9.14371 7.44466
2 6.74789 -7.18262 -6.76332
2 2.84974 8.02871 -8.7128
2 -7.82166 -1.45106 -8.30655
1 -3.69468 -7.49172 8.62253
2 5.1519 -6.38739 -8.74122
1 8.4411 1.47596 9.08987
2 2.70356 6.294 -10.9756
2 -4.44399 4.51601 10.4389
2 -7.00099 -0.760452 -10.851
1 -2.26557 -6.77019 10.7597
3 3.90919 -5.67045 -10.7637
2 10.7157 7.48885 -2.20899
1 -1.54271 13.0435 2.01735
2 -11.8725 5.43591 -2.24904
2 1.30578 -13.4267 -2.01233
2 12.1382 -5.48588 2.39799
3 1.06559 1.70924 13.196
3 2.25166 0.0110958 -13.1807
1 7.8325 5.98805 -4.40061
2 -11.674 4.2965 -4.59627
2 -8.4383 -7.92402 4.8703
2 2.46836 -12.6955 -4.2634
2 12.2577 -4.01741 4.45942
2 -1.53031 1.66814 12.9069
2 1.11011 2.33725 -13.0716
2 10.7987 6.09633 2.02046
2 0.0226389 12.4865 -2.52736
2 -10.8066 6.29202 1.85748
2 -10.6091 -5.77222 -1.90789
2 -0.036442 -12.9142 2.40292
2 11.0453 -6.20114 -2.46746
2 -9.02433 5.5237 4.23078
1 0.403459 -10.9977 5.11545
2 9.48138 -5.50954 -4.5141
2 8.12825 4.50546 6.55314
2 -8.27977 5.07448 7.71687
2 -7.82932 -4.37967 -6.22497
2 8.10889 -4.78617 -6.73031
2 6.70112 3.61124 8.86787
1 0.219239 9.58971 -6.82845
2 -5.5553 5.59284 7.97964
2 -6.49766 -3.83781 -8.53196
2 -0.684502 -7.38802 8.7677
2 6.66969 -3.93762 -8.9683
2 5.25116 2.82053 11.1664
3 0.106703 6.5056 -11.3112
2 0.141826 -6.60053 11.1698
2 9.40792 9.83515 -2.16847
2 -3.94529 13.6057 1.90243
1 -8.85786 -9.13383 2.5536
2 -0.204205 4.15158 12.9956
3 3.92481 2.24934 -13.3558
2 -2.69463 12.5363 -2.60337
2 -11.781 3.89013 2.25404
2 -9.30251 -8.15868 -1.77332
2 12.1392 -3.76431 -2.01554
1 7.84275 7.65165 4.65297
2 -2.80232 10.8015 -4.65548
2 -10.203 2.98487 4.45156
2 -7.76671 -7.47353 -3.90927
2 2.83921 -11.2093 4.29887
1 5.128 9.30049 6.92196
2 -2.26182 9.55635 -6.90984
2 -6.67703 -6.87693 -6.06085
3 9.4148 -2.38817 -7.00245
2 5.32519 5.97801 8.69663
2 -2.25112 8.04611 -9.11008
2 -8.11132 2.48987 7.87098
2 -5.42683 -6.31206 -8.22548
2 2.71294 -8.3974 8.96642
2 8.12072 -1.50418 -9.06539
2 3.74291 5.29952 11.0543
2 -2.36641 6.264 -11.5433
1 -5.14713 1.43324 10.8587
2 -4.21682 -5.22195 -10.352
1 2.74501 -6.45823 11.0635
2 6.61572 -0.857969 -11.0984
2 7.97815 10.7394 2.33026
3 -5.76631 12.2633 -2.44406
2 -13.2213 1.63627 2.23591
2 -8.12138 -10.566 -1.69262
2 5.38785 -12.8402 2.29729
2 13.505 -1.43229 -2.43366
2 6.29894 10.0139 4.60995
2 -5.43553 11.2813 -4.68267
2 -6.66317 -9.5818 -3.63454
2 5.56522 -11.3074 4.38697
2 11.981 -0.83834 -4.41579
2 -4.90831 9.61535 -6.87579
2 -9.14097 1.20915 5.89755
2 -5.54221 -9.31707 -6.16765
2 5.40302 -9.83781 6.61855
2 10.7723 -0.0881856 -6.78887
2 3.67744 8.28012 8.90394
2 -4.91519 8.03579 -9.16575
2 -9.42707 0.188301 8.36875
2 5.48693 -8.25615 8.84258
2 9.63789 0.974263 -8.82374
2 2.16972 7.66668 11.013
2 5.44662 -6.66815 11.1462
1 18.7683 0.12055 -0.487147
2 9.26032 16.2128 -0.0477331
3 -9.36335 16.1336 -0.0932571
2 -18.1237 0.240013 0.529898
2 -9.39483 -16.1077 0.693073
2 9.52907 -16.4281 0.0145223
2 9.62704 -5.41989 15.5975
2 -1.10125 10.5324 15.2054
2 -9.23125 -6.63844 14.6439
2 0.232372 -11.0914 -14.8387
2 9.26014 5.4127 -15.3458
2 -9.15257 5.6622 -15.6986
2 17.5243 2.20045 -0.200883
2 17.803 -0.835918 2.14394
2 6.50564 16.1879 -0.113124
2 7.76287 15.6948 2.19287
2 -10.8277 14.0134 -0.399093
2 -7.73799 15.766 1.73484
2 -16.4003 -1.95704 0.255498
2 -16.5806 -0.714395 2.6689
2 -16.9297 1.40376 -1.72085
2 -6.70168 -16.0039 0.615797
2 -9.28205 -14.6517 2.86063
2 -8.09936 -15.1254 -1.55842
2 10.8408 -14.0317 -0.00886062
2 8.14292 -15.5349 -2.10853
2 8.07596 -3.1917 15.8389
2 6.62187 -5.46775 15.6769
2 -1.7962 7.95977 15.0558
2 1.23315 -8.84313 -14.8965
2 -1.34222 -8.69529 -14.9188
2 6.40356 5.60226 -15.4442
2 16.4178 4.67749 -0.220041
2 16.2278 -1.60008 4.22896
2 16.1014 1.55443 -4.68436
2 3.80158 16.234 -0.301997
2 6.0491 14.734 4.31825
2 -12.2895 11.7953 -0.287064
2 -5.26175 15.3726 3.11021
2 -9.38414 13.727 -4.78755
1 -15.5721 -4.29226 -0.601757
1 -11.645 0.168078 4.12135
2 -15.4553 2.05918 -3.92076
3 -4.0726 -16.209 0.609205
2 -9.67671 -12.8847 4.85056
2 -6.7815 -14.3427 -3.80354
2 11.9916 -11.8516 -0.0344639
2 9.44658 -13.3246 4.45707
3 6.7231 -14.6438 -4.09173
2 4.11433 -5.73021 15.6534
2 -3.13586 5.55939 15.0139
2 2.63087 -6.27684 -15.2017
2 3.76606 5.45616 -15.3327
2 14.7563 6.96085 0.0432532
2 14.7461 2.41024 -6.94691
2 1.06404 16.2969 -0.231905
2 9.46347 11.8959 -6.62767
3 -3.2948 13.1951 5.93272
2 -9.11593 12.0743 -6.84822
2 -14.0404 -6.31214 -0.893681
2 -12.8925 -0.815173 6.15517
2 -14.1696 3.21048 -6.05443
2 -1.37492 -16.3478 0.670441
2 -8.41967 -11.2828 6.512
3 -5.62878 -13.6715 -6.00405
2 9.62295 -11.8471 6.66933
2 5.45152 -14.2054 -6.38217
2 5.1509 1.34383 15.6604
2 1.36017 -5.9012 15.7396
2 -4.36249 3.17548 14.9693
2 -3.95382 -3.98347 -14.9702
2 2.19761 3.05836 -15.4058
2 13.3079 9.50162 0.101842
2 13.736 -3.20573 8.87789
3 13.5296 3.31102 -9.1029
2 -1.38287 16.347 -0.378931
2 3.62329 12.8692 8.63563
2 9.28247 10.358 -8.88187
2 -14.3035 7.24677 1.05625
2 -4.68199 12.4182 8.1998
2 -13.1435 3.55075 -8.6357
2 -7.05814 -9.01279 6.71452
2 -4.2618 -12.819 -8.14934
2 14.7631 -7.24282 0.111114
2 9.61284 -10.4287 8.82917
1 2.86397 -16.407 -11.0457
3 3.56603 3.59357 15.5243
2 -1.38663 -6.07755 15.2994
2 -5.36797 0.539869 15.0302
2 5.22739 -1.53893 -15.4439
2 -5.47038 -1.58882 -15.2861
1 -1.0025 5.50695 -15.1712
2 12.1141 11.8163 0.355826
2 12.3796 -3.97347 11.2372
2 12.0171 4.07104 -11.0631
2 2.16903 12.3762 10.8229
2 9.36431 8.73509 -10.9895
2 -15.6883 5.01944 0.848613
2 -12.276 -10.9734 0.489222
2 -11.2688 -3.79609 10.7202
2 -11.7963 4.1332 -10.9283
2 4.02882 -16.6197 0.191368
1 -8.49317 -8.71325 10.5939
2 -2.98429 -12.4689 -10.389
2 16.0231 -4.91536 0.0245796
1 9.48647 -8.68129 11.1503
2 3.76438 -10.678 -11.0114
1 2.31119 5.97098 15.1254
2 -4.06011 -6.04012 15.4164
2 -6.45908 -1.8423 14.7374
2 6.40195 0.689225 -15.5653
2 -6.7665 0.707913 -15.3082
2 -4.93316 4.5609 -13.443
2 10.6232 14.0026 0.0526569
2 11.0564 -4.65334 13.5269
2 10.6711 4.78951 -13.222
2 0.593258 11.3593 13.1133
2 9.44657 7.18799 -13.0862
2 -17.058 2.57153 0.61167
2 -10.8105 -13.7175 0.680123
2 -11.1243 -5.79972 12.6605
2 -10.4961 4.74219 -13.2928
2 6.72342 -16.499 0.125516
2 -9.94843 -8.37059 12.7395
2 -1.35107 -11.6287 -12.5577
2 17.5395 -2.39877 -0.18772
2 9.72785 -7.07801 13.3368
2 1.45992 -11.5224 -12.6176
2 0.85076 8.17068 15.0629
3 -6.68062 -6.47247 15.2888
2 -7.65107 -4.24543 14.7376
2 7.83194 3.24729 -15.4032
2 -6.23805 5.50026 -15.6209
2 5.10933 15.5952 1.90353
2 -11.1471 12.6819 -2.75203
1 -15.3846 -3.33667 1.79902
2 -5.15509 -15.1238 -1.39828
2 5.31245 -3.32993 15.6243
2 14.8004 3.82331 -4.33337
2 3.40808 14.6016 4.37543
2 -10.0688 11.133 -4.49872
2 -13.014 -2.79561 4.29171
2 10.8969 -11.0691 4.22387
2 2.57818 -3.49554 15.6691
3 -1.48765 -3.84145 -15.1591
2 13.3124 4.68492 -6.67322
2 -10.1786 9.57802 -6.79542
2 10.6925 -9.56529 6.53468
2 -0.158794 -3.67592 15.4816
2 -2.76282 -1.67206 -15.3293
2 12.1658 5.57762 -8.81723
3 -10.1784 8.17977 -9.07715
2 -9.91548 -4.32851 7.94424
2 -1.36588 -12.9067 -8.31674
2 11.0065 -7.95648 9.02203
3 -2.74557 -3.86927 15.2833
3 10.7222 6.47346 -10.9665
1 -0.712848 11.9957 10.7248
3 -10.6304 6.45549 -11.2681
2 -9.93165 -6.11729 10.2304
2 0.0463761 -12.2657 -10.3067
2 10.923 -6.34642 11.1926
3 -5.57292 3.0635 -15.5038
2 16.2082 1.54161 2.1648
3 6.70272 14.762 -2.34333
2 -9.33987 13.4405 1.9492
3 -15.3727 -0.976137 -2.05898
2 -6.57131 -14.3991 2.92728
2 9.39803 -13.2259 -2.02873
2 14.9443 0.663682 4.30997
2 6.65077 13.3008 -4.51654
2 -8.04868 12.9549 4.49803
2 -13.7495 -0.129656 -4.03899
2 8.0441 -12.3896 -4.10809
2 6.78609 11.8329 -6.85803
2 -6.88982 11.9367 6.74849
1 -11.8203 2.39808 -6.34907
2 -5.64474 -11.3523 6.5851
2 6.78001 -11.7356 -6.43819
2 12.4288 -0.814347 8.90348
2 6.68165 10.1478 -9.00589
2 -6.09709 10.034 8.21176
3 -11.7142 1.22513 -8.77784
2 5.23446 -11.2294 -8.71693
2 -10.6168 1.77106 -11.0335
2 -5.95427 -10.0841 11.1888
2 4.65204 -8.17093 -11.2734
2 9.35266 -2.35376 13.2633
2 6.76349 7.13022 -13.2284
3 -9.39103 2.46488 -13.1662
2 -6.79753 -8.05605 12.9564
2 2.71657 -9.14459 -12.8834
2 14.7642 5.54753 -2.04174
2 2.31133 15.5385 2.08963
2 -11.7553 10.0737 -2.49651
2 -14.0972 -5.65413 1.88223
2 -2.5261 -15.1398 -1.34296
3 12.2087 -10.1359 2.17598
1 3.72156 -1.3393 15.8957
2 1.3674 -4.01514 -15.0087
2 13.4487 6.30905 -4.30187
2 -12.1098 -5.25093 3.52751
2 -0.682089 -14.7388 -3.37144
2 12.1813 -8.76281 4.37712
2 1.12447 -1.17578 15.512
2 -0.159886 -1.68312 -15.241
2 12.0747 7.22624 -6.52293
2 0.599326 13.0979 8.67049
1 -11.7362 -3.45685 6.37387
2 0.263461 -13.4654 -5.91421
2 12.2869 -7.29619 6.55019
2 -1.61613 -1.48562 15.6544
2 -1.67798 0.584969 -15.2909
2 10.729 7.92361 -8.62375
2 -2.03288 12.9498 8.44724
2 -11.6679 5.87167 -8.90329
2 -9.99464 -5.58693 5.26068
1 3.29422 -13.0308 -9.11686
2 12.4141 -5.57714 8.99934
2 -3.13384 2.85043 -15.2409
2 14.8753 3.80504 2.48917
2 4.07861 14.8483 -2.39657
1 -11.065 11.1574 1.88126
2 -13.8609 -2.77584 -3.41305
2 -3.81058 -14.4931 2.72622
3 10.6866 -10.9836 -2.21028
1 13.1682 0.0937592 6.01462
2 4.10263 13.3796 -4.63064
2 -9.50798 10.4198 4.24182
2 -12.0442 -1.83803 -5.37895
1 9.34036 -10.1539 -4.36756
2 11.9181 2.22443 6.85494
2 4.2563 11.876 -6.90202
2 -8.16873 9.53166 6.47096
2 -3.2396 -11.6624 7.20563
2 7.96847 -9.45064 -6.59908
3 -7.18367 7.75033 7.8509
1 -11.3985 -1.35167 -8.07777
1 -6.39738 -8.11689 8.86749
2 6.37225 -8.75752 -8.8393
1 9.09453 0.556415 11.448
2 4.21036 8.78018 -11.0404
2 -4.50942 9.54033 10.4638
1 -9.45685 -0.650488 -10.2516
2 -5.15281 -7.19775 10.9378
2 7.93429 -0.125325 13.7281
2 3.94587 7.0856 -13.0707
2 -4.53125 6.26975 12.7009
2 -7.97075 0.0253495 -13.2259
2 -3.99812 -7.85802 13.0905
2 13.3436 7.84263 -2.15129
2 0.785804 14.5157 4.12371
2 -12.4934 -7.57691 2.48167
2 0.273299 -15.6805 -1.12158
2 13.4898 -7.89673 2.38426
2 2.53949 1.18897 15.4683
2 2.41159 -1.49687 -15.2831
2 12.0072 8.5909 -4.29209
2 -0.901803 13.8812 6.33782
1 -13.6783 5.58414 -4.01854
2 -11.0993 -7.83725 4.78161
2 13.6044 -6.37346 4.58296
2 -0.232945 1.1168 15.5085
2 10.8032 9.60679 -6.58989
1 -3.25863 11.9292 3.52694
2 -12.8774 5.33797 -6.56013
2 2.76592 -14.1406 -6.42778
2 13.8113 -4.71435 6.62887
2 -2.78411 1.01691 15.1788
1 -0.743554 3.04349 -14.6982
2 13.4296 6.073 2.39431
2 1.35297 15.0083 -2.64722
2 -12.0479 8.61757 1.98785
2 -12.0647 -8.07323 -1.6545
3 -1.28254 -15.0646 3.03395
2 12.1266 5.23198 4.33092
2 1.36498 13.0968 -4.81646
2 -10.6893 7.94482 4.26845
2 -1.1271 -13.0226 4.84986
2 10.9006 -7.7961 -4.45537
2 10.6305 4.5623 6.56801
2 -9.46368 7.11724 6.5984
2 -9.4504 -3.87718 -8.20924
2 -0.70039 -11.7056 7.21439
2 9.42004 -7.05269 -6.77889
2 9.3514 3.82 8.92266
2 1.68336 10.2786 -9.04053
2 -1.75919 -10.9914 9.50534
2 7.86734 -6.37039 -9.03202
2 8.13857 2.96845 11.2677
2 1.6484 8.7302 -11.2046
2 -5.77054 6.93629 10.2821
2 -8.08186 -3.09442 -10.4879
2 -0.465119 -9.10442 10.9129
1 6.52367 -5.54586 -11.1545
2 6.42744 2.2636 13.3909
2 -5.6425 3.5167 12.4608
2 -6.75791 -2.25716 -12.8923
2 -1.21665 -7.55361 13.237
1 5.10299 -4.66602 -12.9724
2 -14.3538 6.2396 -1.56139
2 -11.3291 -9.7297 2.70285
2 2.82476 -15.6549 -2.06675
2 14.8102 -5.76352 2.15842
2 1.08338 3.35486 15.2179
2 3.62456 0.853194 -15.3661
2 10.846 10.9749 -4.28395
2 -2.28539 14.9304 4.01155
1 -9.90359 -10.3153 4.77069
3 4.03852 -15.0333 -4.24489