3798
 Atoms. Timestep: 6000
2 0.0160559 0.0511955 0.0845346
2 2.88321 -0.0638895 0.522909
2 -1.31577 2.25249 -0.0395436
2 -3.01362 -0.152423 -0.0250942
2 -1.52841 -2.24303 -0.144038
2 1.38043 -2.25337 0.0780491
2 1.16693 -0.743153 2.35507
3 0.12653 1.75259 2.49047
2 -1.45874 -0.74437 2.12992
2 -0.0565078 -1.62018 -2.42244
2 1.28812 0.739346 -2.25048
2 -1.40647 0.735441 -2.20807
2 5.3971 0.0737329 0.137693
1 -2.84657 4.48951 -0.169567
2 -5.62301 -0.186158 0.0383984
2 -2.77728 -4.77451 0.0512729
2 2.52927 -4.85194 0.0254602
2 2.78454 -1.39467 4.51933
2 0.0464126 3.34927 4.47772
2 -2.64072 -1.53586 4.31376
2 0.0179906 -3.21419 -4.44595
2 2.64415 1.60094 -4.43206
2 -2.73665 1.52023 -4.56464
2 3.94135 2.39686 0.0782988
2 3.74149 0.806117 -2.18966
2 -0.197737 4.75411 0.031048
2 1.46212 3.97683 2.07174
2 2.55304 3.25365 -2.14043
2 -4.11676 2.13757 -0.129827
2 -1.22861 3.90288 2.18674
2 -2.77396 3.10976 -2.3118
2 -4.09126 -2.611 -0.154076
1 -5.44118 -3.16751 2.11576
2 -4.1761 0.680796 -2.35128
2 -0.124371 -4.77348 0.0243162
2 -2.55973 -3.20851 2.07998
2 -1.37607 -4.11031 -2.20957
2 4.11937 -2.37966 0.254588
2 2.51505 -3.20867 2.44572
2 1.22038 -3.86369 -2.17284
1 1.51464 0.857049 4.48948
2 -0.0774466 -1.56491 4.48179
2 -1.33348 0.940046 4.36681
2 1.35857 -0.830636 -4.43862
2 -1.39369 -0.720721 -4.39356
3 0.0602344 1.50599 -4.42575
3 2.60869 1.70309 2.23557
2 -0.0534007 3.13933 -2.34571
2 -2.69101 1.666 2.13395
2 -2.77922 -1.56364 -2.21162
2 0.0217257 -3.20369 2.27067
2 2.87519 -1.61925 -2.12364
2 7.99698 0.069442 0.00804122
2 4.39349 7.2534 0.0842821
2 -4.05352 6.92665 -0.120536
2 -8.26449 -0.0419419 -0.0457805
2 -4.23811 -7.03716 0.0445829
2 4.12371 -7.2689 0.0701988
2 4.19351 -2.45135 6.55394
3 0.0541224 4.65848 6.6248
3 0.190917 -4.86009 -6.55285
2 4.01121 2.20744 -6.78776
2 -4.08965 2.28933 -6.80374
2 6.62791 2.49533 -0.114589
2 6.76963 -0.841875 2.29104
2 6.76084 0.837704 -2.13475
2 2.87684 6.38346 2.22693
2 -5.59984 4.68308 0.0777041
2 -2.72809 6.29948 2.19509
1 -3.9976 5.412 -2.44141
2 -6.76657 -2.47545 0.0354945
2 -6.91301 -1.05817 2.25145
2 -6.81845 0.775848 -2.12195
2 -1.36256 -6.97973 0.0675801
2 -4.15467 -5.35205 2.35932
3 -2.74399 -6.38187 -2.11827
1 5.36819 -4.71185 0.0255133
2 4.0511 -5.49727 2.29862
2 2.79711 -6.45315 -2.11528
2 2.72849 -0.168413 6.68558
2 1.41411 -2.52372 6.83911
2 -1.12512 2.41062 6.67312
2 1.41371 -2.55886 -6.55876
2 -1.21358 -2.60098 -6.52085
2 1.37349 2.27226 -6.62553
2 5.27191 4.70043 0.0607145
2 5.37986 -1.67483 4.27988
2 5.43469 1.48305 -4.45721
2 -1.25381 7.10821 0.0920262
2 1.39176 5.6164 4.33443
2 4.01754 3.86083 -4.48209
2 -6.79951 2.31374 0.105462
2 -1.42234 5.63855 4.47604
2 -3.98347 4.04594 -4.63718
2 -5.54526 -4.75838 -0.0413422
2 -5.5254 -1.63496 4.59174
2 -5.29949 1.7612 -4.45233
2 1.31115 -7.17218 0.125324
2 -3.95569 -3.78086 4.40121
2 -1.18345 -5.65863 -4.31975
2 6.56166 -2.39536 0.107787
2 4.10934 -4.07692 4.53296
2 1.39059 -5.63308 -4.46509
2 1.35561 2.30077 6.72073
2 -1.28783 -2.57474 6.78124
2 -2.7111 -0.111257 6.76596
2 2.83937 -0.120796 -6.60831
2 -1.31769 2.43085 -6.5864
2 5.3053 3.2542 -2.33152
2 0.0251515 6.36526 2.16014
2 -5.54789 3.22413 -2.15169
2 0.0097508 -6.59718 -2.19928
2 5.43136 -3.30075 2.31679
2 0.0127185 -0.135676 6.79809
2 -0.068524 -0.110661 -6.65729
2 5.43572 1.60755 2.27893
2 1.17839 5.5754 -2.33537
2 -4.21741 3.96749 2.22858
2 -5.36751 -1.73738 -2.31027
2 -1.21579 -5.57749 2.31373
2 4.11511 -4.0481 -1.97323
2 1.3184 3.81244 -4.54994
2 -2.93024 3.02728 4.52963
2 -3.9873 -0.79011 -4.59812
2 -1.34219 -3.95486 4.46686
2 2.9546 -3.24561 -4.23951
2 4.05665 3.94108 2.2116
2 -5.37929 1.34984 2.31732
2 -4.09 -3.97558 -2.31646
2 1.47882 -5.67593 2.36042
1 5.4073 -1.36234 -2.00622
3 -1.44277 3.93113 -4.56207
2 -4.06244 0.647235 4.44574
3 -2.67062 -3.10458 -4.38092
2 4.12041 -0.908093 -4.30879
2 10.725 -0.0377842 0.104824
2 5.66163 9.55077 0.00551064
2 -5.64312 9.53789 0.0380943
2 -11.028 0.0414608 -0.07958
3 -5.54352 -9.46836 0.0785498
2 5.54138 -9.47932 -0.100193
2 5.45374 -3.3511 8.73329
2 0.0741566 6.29956 8.98047
1 -5.46438 -3.16228 8.79248
2 -0.0574208 -6.19857 -8.76643
2 5.44675 3.21657 -8.84879
2 9.40087 2.34139 0.024921
2 9.49439 -0.754511 2.24807
2 9.46697 0.86993 -2.24481
2 3.00952 9.50673 0.193493
1 4.35854 8.76506 2.49382
3 5.53636 7.96506 -2.2496
2 -6.76556 7.02979 0.0748571
2 -4.0578 8.75001 2.1842
2 -5.39372 7.87407 -2.29496
2 -9.70617 -2.36752 -0.053086
2 -9.71613 -0.884943 2.28587
2 -9.66425 0.936944 -2.23707
2 -2.85094 -9.35704 -0.108856
2 -5.51806 -7.94541 2.06324
2 7.0469 -7.3863 0.0809844
2 5.3249 -7.96426 2.27789
2 4.14291 -0.88713 8.91998
2 2.88522 -3.29742 8.88931
2 -1.51615 4.02497 8.89445
2 1.44168 -4.04402 -8.79754
2 2.87168 3.1036 -8.92986
2 7.9657 4.9721 -0.110263
3 8.07205 -1.62923 4.45589
2 8.23926 1.5335 -4.45508
2 0.112696 9.3446 0.107939
2 2.82133 7.96901 4.46608
2 5.21434 6.33662 -4.34093
2 -8.2723 4.65397 0.00897031
2 -2.78862 8.02915 4.4294
1 -5.35651 6.27469 -4.59293
2 -8.20909 -4.80453 0.238328
2 -8.53253 -1.55265 4.56706
2 -8.18826 1.7522 -4.44817
2 -0.131613 -9.50956 0.0801859
2 -5.59337 -6.37128 4.35251
2 -2.87415 -7.83808 -4.35375
2 8.22054 -4.87706 0.0869441
2 5.51802 -6.34046 4.51557
2 2.73494 -7.96061 -4.19141
2 2.6718 1.4384 8.98082
2 -0.0409955 -3.41569 9.09649
2 -2.80051 1.49039 9.00078
2 2.67537 -1.58742 -8.85203
2 -2.5579 -1.72215 -8.8441
2 0.0156418 3.05723 -8.95834
2 6.9794 -2.5506 6.64113
2 6.79417 2.27529 -6.74328
2 -2.72893 9.51715 0.0530298
2 1.23952 7.11749 6.66355
2 5.48884 4.70953 -6.81523
2 -9.62312 2.26355 0.0814104
2 -1.51557 7.17532 6.76397
1 -5.62286 4.69465 -6.67808
3 -6.90322 -7.14711 -0.0980237
2 -6.81375 -2.38752 6.82674
2 -6.75327 2.32724 -6.49125
2 -5.51809 -4.66159 6.52759
2 -1.34951 -6.94319 -6.47987
2 9.31912 -2.37045 0.0560139
2 5.18042 -4.91106 6.76741
2 1.39084 -7.14737 -6.62443
2 1.36834 3.96219 8.91506
2 -2.88576 -3.12281 8.95078
3 -4.05792 -0.739355 8.88531
2 4.05323 0.64698 -9.02778
2 -4.05973 0.579658 -8.75777
2 -2.6275 3.22519 -8.85133
2 8.16551 3.41953 -2.24573
3 1.46855 8.63715 2.28568
2 -6.69129 5.50464 -2.15217
2 -8.20882 -3.25892 2.30648
2 -1.51674 -8.71736 -2.13672
2 6.83601 -5.6083 2.21927
2 1.37982 -0.850011 9.00335
2 -0.0583152 -1.6001 -8.93989
2 6.74069 3.92663 -4.51691
2 0.120789 7.92741 4.42974
2 -6.81075 3.91171 -4.26278
2 -6.84593 -4.00533 4.33075
2 0.0698184 -8.01879 -4.34888
2 6.92266 -3.99351 4.62891
2 -1.30431 -0.840198 8.83741
2 -1.41365 0.763785 -8.67168
2 2.8069 7.83282 -2.2847
2 -5.46285 6.27778 2.27946
2 -8.22079 -1.63454 -2.15567
2 -2.91273 -7.68763 2.07632
2 5.64419 -6.5295 -2.00781
2 6.77211 0.754813 4.52589
2 2.67896 6.31435 -4.46964
2 -4.14873 5.49212 4.41374
2 -6.66646 -0.668378 -4.25937
2 -2.74008 -6.35838 4.50175
2 4.22864 -5.62955 -4.30047
2 5.56535 -0.0705192 6.64788
2 2.9156 4.83495 -6.71848
2 -2.73303 4.49619 6.59029
2 -5.55804 0.0132126 -6.58889
2 -2.92965 -4.76747 6.74205
2 2.87421 -4.75729 -6.54799
2 6.53166 5.51076 -2.24364
2 -1.23068 8.83877 2.31836
2 -8.44304 2.98943 -2.1124
2 1.26265 -8.83426 -1.94071
2 8.2924 -3.18142 2.33081
2 0.141294 1.68896 8.98013
2 1.49581 0.666811 -8.83373
2 6.81598 3.80039 2.48715
2 0.132421 7.97077 -2.20499
2 -6.92011 4.00088 2.35019
2 -6.69766 -4.01265 -2.16866
2 -0.118904 -7.953 2.16294
2 6.72798 -4.18221 -2.16075
3 5.52949 2.97194 4.52405
2 -0.0760458 6.45752 -4.50636
2 -5.50398 3.15952 4.45023
2 -5.20784 -3.24223 -4.65958
2 0.00139425 -6.28578 4.60266
2 5.52443 -3.23989 -4.23018
2 3.98127 2.01417 6.68149
2 -0.121323 4.69793 -6.64221
2 -3.91119 -2.31538 -6.66602
3 4.19867 -2.4408 -6.52093
2 5.68576 6.33014 2.11314
2 -2.64448 7.94789 -2.18596
2 -8.27342 1.58443 2.18387
2 -5.36694 -6.3977 -2.13068
2 2.56586 -8.01899 2.07413
1 7.9187 -1.81898 -2.07672
2 3.96252 5.3691 4.50271
2 -2.5774 6.29028 -4.43487
2 -6.71438 0.803699 4.51044
2 -4.1433 -5.52674 -4.37742
2 2.69618 -6.13395 4.8173
2 6.82826 -0.995416 -4.26196
2 2.7237 4.60039 6.66759
2 -5.46889 -0.150664 6.8401
2 -2.73032 -4.75786 -6.41172
1 -0.124553 -4.9328 6.83032
2 5.45091 -0.0134073 -6.45495
2 13.654 -0.0039907 -0.0447264
2 6.94111 11.8869 -0.113355
2 -6.91626 11.8109 -0.110756
2 -13.5432 -0.0160763 -0.0525435
2 -6.8907 -11.5483 0.0624386
2 6.81536 -11.7944 -0.0619939
2 7.0362 -3.7904 11.1495
3 -0.0213706 7.64311 11.1297
2 -6.77548 -3.97979 11.1018
2 0.0553057 -7.92826 -11.1082
2 -6.89816 3.82027 -11.0095
2 12.018 2.10147 -0.0784616
2 12.2156 -0.951388 2.41115
3 12.1662 0.814033 -2.20085
1 4.16321 11.8509 0.147686
2 5.51165 10.956 2.34163
2 6.86972 10.1771 -2.44482
2 -8.24393 9.25603 0.187438
2 -5.38921 11.1935 2.30846
2 -6.7832 10.1488 -2.23318
2 -12.3429 0.764664 -2.30923
2 -4.17508 -11.7498 0.0986045
2 -7.01791 -10.1934 2.27498
2 -5.37517 -11.078 -2.1791
1 9.50381 -10.1541 2.12334
2 6.76178 -10.2093 2.20845
2 5.60375 -11.2982 -2.30774
2 5.46137 -1.70483 11.2381
2 4.05761 -3.98436 11.2342
2 -1.18824 5.46665 11.1921
2 1.30261 -5.56991 -10.9818
1 -1.37214 -5.45079 -11.1245
2 4.1295 3.98909 -11.1234
1 10.7055 4.84544 0.0537893
2 10.9094 -1.67061 4.60664
2 10.9686 1.4859 -4.43142
2 1.5407 11.8884 0.0933793
1 2.85174 12.552 4.67345
2 6.92128 8.56386 -4.46002
2 -9.56351 6.94863 -0.0328401
2 -4.15032 10.3541 4.50631
3 -6.87 8.63682 -4.58894
2 -11.1716 -1.53718 4.33177
2 -10.8284 1.51661 -4.52301
2 -1.53919 -11.8481 0.0734288
3 -6.87985 -8.49685 4.27547
2 -3.93122 -10.3322 -4.27407
2 6.57733 -8.69243 4.56352
3 4.09937 -10.2548 -4.41231
2 3.89108 0.591992 11.2545
2 1.23559 -4.10855 11.3604
2 -2.81836 3.19897 11.1352
2 2.62438 -3.28881 -11.054
3 -2.78444 -3.15556 -10.8413
2 1.33691 4.12246 -10.9416
2 9.47533 7.3151 0.105249
3 9.621 -2.50772 6.77804
2 9.51655 2.31007 -6.81531
2 -1.25906 11.9026 0.0878073
2 2.69572 9.31245 6.89877
2 7.01625 7.14939 -6.70039
2 -10.9436 4.85632 -0.0538067
2 -2.72781 9.52239 6.68995
3 -7.06904 7.22693 -6.60682
2 -9.58575 -7.00151 0.034157
2 -9.64963 -2.26276 6.68702
3 -9.63029 2.48877 -6.57601
2 1.25352 -11.9806 0.00385256
2 -6.95899 -7.08561 6.49561
2 -2.59713 -9.45944 -6.40988
2 10.9407 -4.95425 -0.0238122
2 6.85378 -7.24048 6.77372
2 2.7912 -9.70491 -6.68298
2 2.88575 3.15349 11.1233
2 -1.50042 -4.12929 11.2525
1 -4.18265 0.744205 11.076
2 -3.94933 -0.737437 -11.2697
2 -1.39977 3.82603 -11.0926
2 8.17745 9.56322 -0.0886357
2 8.44617 -3.37357 9.02433
2 8.11548 3.22335 -9.02687
2 -4.06647 11.9753 0.0984539
2 1.20568 8.72713 9.00351
2 6.76467 5.56285 -9.02153
2 -12.4118 2.39832 -0.10341
2 -1.3673 8.76496 8.98215
2 -6.75498 5.61221 -8.78906
2 -8.20951 -9.32713 -0.203119
2 -8.19051 3.02613 -8.71098
2 4.05022 -11.8255 -0.0668124
2 -7.09554 -5.33417 8.98035
2 -1.158 -8.67184 -8.79255
2 12.0996 -2.40264 0.0418143
2 7.03872 -5.63516 8.9269
2 1.51326 -8.82067 -8.98894
2 1.43661 5.50154 11.1096
2 -4.12985 -3.98222 11.1243
2 -5.39287 -1.72986 11.2487
2 5.35473 1.66843 -11.2511
3 -5.5215 1.70042 -10.9766
2 -4.13707 3.9692 -10.9628
2 10.9104 3.047 -2.23866
2 2.7469 10.999 2.63995
2 -8.18914 7.81189 -2.17491
2 -10.9956 -3.33872 2.18161
2 -2.76298 -10.9845 -2.15869
2 7.99745 -7.91927 2.3959
2 -0.167439 -3.08087 -11.1225
2 9.46389 3.82476 -4.4983
2 1.40907 10.1437 4.45174
2 -8.07356 6.25147 -4.35687
2 -9.73062 -3.92949 4.4446
3 -1.16459 -10.2228 -4.42676
2 8.21623 -6.40835 4.67157
2 0.0694716 -1.52417 11.0884
3 -1.35639 -0.825283 -10.9667
2 8.11319 4.80173 -6.69997
2 -0.117006 9.65982 6.75496
2 -8.32975 4.73846 -6.56295
2 -8.35292 -4.64827 6.66747
2 0.0244715 -9.44553 -6.50585
2 8.35831 -4.76357 6.85207
2 -2.58897 -1.76902 11.3222
2 -2.87488 1.49795 -10.9204
2 10.8011 1.65314 2.25081
2 4.09217 10.297 -2.24967
2 -6.84596 8.71486 2.35284
2 -11.0349 -1.46431 -2.40689
2 -4.23493 -10.1396 2.25975
2 7.08819 -8.76985 -2.15571
2 9.67164 0.652462 4.42892
2 4.09582 8.84583 -4.5033
2 -5.59255 7.84539 4.39343
2 -9.44474 -0.916785 -4.36933
2 -4.0898 -8.54152 4.55496
2 5.67718 -7.83968 -4.51724
2 8.20651 -0.270265 6.56723
2 4.19476 7.13649 -6.67951
2 -4.1358 7.13774 6.56281
3 -8.25842 0.165946 -6.48678
2 -4.29446 -7.10191 6.90324
2 4.06465 -7.25189 -6.75123
2 6.78164 -0.960011 8.8379
2 4.10863 5.60715 -9.13153
2 -2.7317 6.2475 8.92969
2 -6.74487 0.760824 -8.68908
2 -4.44109 -5.54268 8.95198
2 2.78131 -6.43737 -8.78436
2 9.56847 5.5223 -2.12495
2 0.168166 11.009 2.25352
3 -9.46187 5.43544 -2.26316
2 -9.64653 -5.58901 2.4439
2 0.0191489 -11.0411 -2.22827
2 9.47839 -5.59577 2.33363
2 1.49264 0.745879 11.2472
2 1.23 -0.704505 -11.0868
2 8.09192 6.23003 -4.51281
2 -1.4298 10.3481 4.63116
2 -9.63336 3.95889 -4.42218
2 -8.31454 -6.32813 4.48992
2 1.45059 -10.3221 -4.51157
2 9.62899 -3.96519 4.57596
2 -1.18606 0.886477 11.1591
1 -0.172832 1.46866 -11.066
2 9.3892 3.70646 2.21116
2 1.49449 10.323 -2.01448
2 -8.16187 6.28739 2.14006
2 -9.46977 -4.00732 -2.40244
2 -1.5902 -10.192 2.22765
2 8.38006 -6.35372 -2.21763
2 8.13598 2.98268 4.41056
3 1.40272 8.71597 -4.32377
2 -6.90468 5.62324 4.3942
1 -6.89621 -2.50686 -6.7716
2 -1.43918 -8.60238 4.41098
2 6.89402 -5.59693 -4.48486
3 6.81729 2.18054 6.66003
2 1.293 7.16573 -6.72177
2 -5.57696 4.65325 6.69172
2 -1.68289 -7.12444 6.8291
2 5.47263 -4.79118 -6.57869
2 5.3666 1.51459 8.9538
2 1.36003 5.63057 -8.89492
2 -4.13373 3.86316 8.86756
2 -5.46598 -1.52548 -8.72333
3 -1.55557 -5.50656 8.92006
2 4.00961 -4.12069 -8.74048
2 8.10141 7.76622 -2.29875
2 -2.62588 11.3068 2.30047
2 -8.21232 -7.82228 2.09069
2 2.78929 -10.9371 -2.20791
2 10.8459 -3.27083 2.31218
1 0.353998 3.00968 11.5245
2 2.69132 1.70534 -11.1509
2 8.27381 6.20895 2.14524
1 -1.50903 10.4882 -2.16577
2 -9.535 3.84427 2.164
2 -8.29237 -6.50663 -2.1508
2 1.34436 -10.4154 2.36721
2 9.43839 -3.79342 -2.25378
2 6.74844 5.37188 4.58192
1 -1.26451 8.7853 -4.25636
2 -8.32917 3.15606 4.47739
2 -6.71803 -5.4558 -4.33381
2 1.22967 -8.55903 4.42365
3 8.24154 -3.42371 -4.34504
2 5.38411 4.56151 6.6668
2 -1.32661 7.23088 -6.67128
2 -6.83076 2.29705 6.73551
2 -5.40646 -5.04421 -6.72336
2 1.20986 -7.19628 6.79614
2 6.91768 -2.55312 -6.48996
2 4.08286 3.98761 8.92112
2 -1.40154 5.40728 -8.77066
2 -5.50433 1.3707 8.81417
3 -4.27484 -3.85449 -8.72188
2 1.33205 -5.63623 9.04416
2 5.35081 -1.7556 -8.7527
2 6.94351 8.72956 2.22231
2 -4.06552 10.2788 -2.00676
2 -10.8809 1.43201 2.22723
2 -6.64478 -8.61842 -2.15253
2 3.97001 -10.2825 2.02819
2 10.7399 -1.53562 -2.14119
2 5.65269 7.89936 4.61254
2 -4.18384 8.67809 -4.34961
2 -9.60347 0.677262 4.64514
1 -5.38919 -7.95363 -4.32208
3 3.90782 -8.70837 4.33787
2 9.58496 -0.87281 -4.54988
2 4.12192 7.06808 6.68006
3 -8.22025 -0.0513892 6.74089
1 -3.9276 -7.07416 -6.60705
2 4.01191 -7.19995 6.79318
2 8.2698 -0.129998 -6.76996
2 2.70753 6.36324 8.73335
2 -4.15294 5.40485 -8.8267
2 -6.75586 -0.899453 9.05688
2 -2.70754 -6.22326 -8.80724
2 4.19269 -5.75133 9.17003
2 6.83327 0.661534 -9.02572
2 16.3004 -0.0440793 -0.0506291
1 8.2699 14.1948 -0.342147
2 -8.22947 14.1387 0.163393
2 -16.2706 -0.131069 -0.00424813
2 8.29371 -14.4636 0.0498181
2 8.44522 -4.80399 13.2885
2 0.101016 9.41853 13.4036
2 -8.42259 -4.7013 13.4273
2 0.139135 -9.63337 -13.2921
2 8.2194 4.83336 -13.4101
2 -8.24656 4.71952 -12.9801
2 14.8515 2.31788 -0.0564277
2 14.8384 -1.00509 2.1698
2 15.0167 0.740385 -2.44631
2 5.45825 14.3745 -0.000615464
2 6.82867 13.396 2.19223
2 8.11352 12.6113 -2.29236
2 -9.74465 11.7459 0.237093
2 -6.71659 13.3536 2.22303
2 -8.41931 12.5075 -2.20193
3 -15.0473 -2.25715 -0.071662
2 -14.8908 -0.874441 1.99419
2 -14.9973 0.64148 -2.15229
2 -5.48088 -14.0997 -0.00123399
2 -8.29923 -12.5654 2.2289
2 9.5058 -11.7105 -0.0689291
2 8.19928 -12.4453 2.14331
2 6.87015 -13.6672 -2.10151
2 6.80126 -2.4489 13.5752
2 5.53046 -4.64303 13.4336
2 -1.19894 6.95174 13.375
2 1.38205 -7.10361 -13.2588
2 -1.23384 -7.09405 -13.3726
2 5.61625 4.7849 -13.3769
2 13.5368 4.5081 -0.160509
2 13.8891 -1.73747 4.42254
2 13.7681 1.71058 -4.56375
2 2.88593 14.3357 0.121536
2 5.46921 12.6265 4.45734
2 8.16436 10.9506 -4.58531
2 -11.0126 9.36258 -0.0246682
1 -5.40228 12.679 4.43818
2 -8.07997 10.9833 -4.30798
2 -13.789 -4.81325 -0.0594513
2 -13.7658 -1.62279 4.34131
2 -13.5783 1.5846 -4.46695
2 -2.68438 -14.1469 0.0612227
2 -8.31021 -10.9769 4.45582
1 -5.36643 -12.6764 -4.13655
2 10.944 -9.46807 0.0209217
2 8.0076 -11.0341 4.50312
2 5.467 -12.8649 -4.46628
2 5.41089 -0.0494957 13.5277
2 2.62128 -4.68932 13.6931
2 -2.72126 4.61648 13.4376
2 2.76503 -4.88551 -13.2558
1 -2.76069 -4.5753 -13.3431
2 2.7595 4.80118 -13.3004
2 12.2259 7.06122 -0.0979599
2 12.427 -2.34579 6.81019
2 12.2939 2.53131 -6.72676
2 -0.137678 14.1609 0.165722
2 4.16867 11.7877 6.89358
2 8.26181 9.5706 -6.69552
3 -12.3544 7.11571 -0.0906294
2 -3.91206 11.8316 6.74218
2 -8.15012 9.64914 -6.5534
2 -12.3701 -7.12305 -0.072224
2 -12.3343 -2.32379 6.63902
3 -12.3701 2.2486 -6.52492
3 0.127638 -14.2429 0.0814531
2 -8.17439 -9.40153 6.48394
2 -4.09463 -11.7957 -6.79129
2 12.2167 -7.21626 0.0630151
3 7.96452 -9.75258 6.6569
2 4.03563 -11.9243 -6.68369
2 3.9701 2.24635 13.3462
2 -0.107208 -4.87093 13.5199
2 -4.24832 2.37879 13.3454
2 3.83487 -2.23767 -13.4062
3 -4.15771 -2.22488 -13.3802
3 11.0602 9.41727 -0.0596329
2 11.018 -3.2479 8.91172
2 10.7396 3.17147 -8.92673
2 2.83717 11.0764 9.07831
2 8.1232 8.07088 -9.01162
2 -13.7857 4.88581 -0.0590355
2 -2.49301 11.1324 8.89725
2 -8.35028 7.86885 -8.90111
2 -10.9603 -9.29252 -0.1228
2 -11.0551 -3.23035 8.96383
2 -10.9274 2.99935 -8.76723
2 2.68478 -14.2555 0.0846813
2 -8.20718 -7.90422 8.71871
1 -2.69211 -11 -8.80407
2 13.5621 -4.88179 0.058903
1 8.41454 -8.17934 8.9203
2 2.77904 -11.0382 -9.0724
1 2.71342 4.62709 13.3899
2 -2.91692 -4.80021 13.5177
2 -5.39848 0.0406049 13.148
1 5.30404 0.0798621 -13.306
2 -5.41139 0.166348 -13.3045
2 -2.68904 4.71566 -13.3032
2 9.56409 12.0363 -0.00697942
2 9.59133 -4.1336 11.0991
2 9.65833 4.18916 -11.0675
2 -5.62931 14.3264 0.0843456
2 1.41483 10.3651 11.1749
2 8.1973 6.30795 -11.1341
2 -15.0257 2.47174 -0.0680883
2 -1.20505 10.3154 11.2252
2 -8.14502 6.39671 -10.9493
2 -9.64825 -3.83715 11.0944
2 -9.65769 3.93612 -10.9911
2 5.27166 -14.1892 0.129974
1 -8.30578 -6.31468 11.1839
1 -1.24367 -10.3527 -11.0333
2 14.9572 -2.50408 -0.134894
2 8.29043 -6.53504 11.1919
3 1.37379 -10.4686 -11.2169
3 1.42526 6.98732 13.2062
2 -5.61651 -4.67343 13.5636
2 -6.85152 -2.34443 13.4458
2 6.93359 2.35432 -13.243
2 -6.8494 2.37344 -13.2068
2 -5.41612 4.66682 -13.1816
2 13.6248 3.16341 -2.39141
2 4.18855 13.4504 2.3022
2 -9.66026 10.305 -2.17095
2 -13.7273 -3.21675 2.02385
2 -3.993 -13.4219 -2.08831
3 4.17139 -2.49575 13.3612
2 0.0509218 -4.67388 -13.2516
2 12.2018 3.93243 -4.59383
2 -9.41553 8.71868 -4.41813
2 -12.5836 -4.02466 4.19242
1 -2.83444 -12.7926 -4.57652
2 9.53937 -8.85379 4.68568
2 1.43341 -2.38273 13.4168
2 -1.57635 -2.176 -13.2099
2 10.7581 4.97301 -6.66869
2 1.27088 11.9331 6.61831
2 -9.52592 7.05559 -6.63531
1 -11.0752 -4.59349 6.49006
2 -1.13054 -11.781 -6.7272
3 9.67635 -7.13039 6.76289
2 -1.18474 -2.45193 13.5092
3 -2.77641 0.340849 -13.3489
2 9.39312 5.8221 -8.8221
3 0.167179 11.2211 8.88619
2 -9.77291 5.59344 -8.86668
2 -9.74952 -5.40896 8.82245
2 0.19575 -11.0125 -8.98615
2 9.70454 -5.78207 9.10736
2 -4.04181 -2.48387 13.4108
2 -4.19467 2.38986 -13.1821
2 13.5425 1.53053 2.20406
2 5.4741 12.7132 -2.21364
2 -8.30838 10.9302 2.30064
2 -13.6432 -1.58651 -2.2131
3 -5.69703 -12.421 2.25459
2 8.34617 -11.1242 -2.26611
1 12.3416 0.694722 4.49976
2 5.63632 11.0212 -4.46273
2 -6.91651 10.1482 4.41885
2 -5.69505 -10.9632 4.38477
2 6.71083 -10.4068 -4.54188
2 10.9717 0.0932869 6.70083
2 5.54149 9.47721 -6.74187
2 -5.36923 9.6554 6.70833
2 -10.9198 0.00763767 -6.62047
2 -5.59146 -9.41225 6.61454
2 5.4067 -9.60177 -6.5782
2 9.65347 -0.77238 8.85884
2 5.44767 8.0642 -9.00299
2 -4.03328 8.63725 8.79196
2 -9.61375 0.794495 -8.68375
3 4.03485 -8.88361 -8.7329
2 8.24925 -1.39328 11.1324
2 5.53285 6.39653 -11.2881
2 -2.57389 7.91898 11.1201
2 -5.56243 -6.39394 11.1924
2 2.79791 -7.84524 -11.0529
2 12.2849 5.4175 -2.34879
2 1.23895 13.4802 2.33837
1 -10.9336 8.07644 -2.23677
2 -12.4124 -5.63056 2.11355
1 -1.18318 -13.2747 -2.35731
2 10.7029 -8.03455 2.38337
2 2.71319 -0.180022 13.4082
2 1.21178 -2.45845 -13.311
2 10.6422 6.30889 -4.48762
1 -0.0621846 12.6432 4.5005
2 -10.9178 6.43104 -4.28304
2 -10.9422 -6.29658 4.46922
2 0.0312683 -12.6471 -4.54527
3 10.7966 -6.50156 4.44091
3 -0.00165082 -0.213475 13.2988
2 -0.195204 -0.0915576 -13.3086
2 -11.0284 4.77174 -6.47204
3 -9.50929 -7.00421 6.68345
1 1.41969 -11.6585 -6.55824
2 10.9633 -4.83198 6.66693
2 -2.60335 -0.0970315 13.327
2 -1.37009 2.41949 -13.2452
2 11.9237 3.97197 2.0789
2 2.72756 12.6916 -2.20913
2 -12.1679 -3.8443 -2.35459
2 -2.99056 -12.5317 2.31492
2 9.76235 -8.68467 -2.31582
2 10.7486 3.26589 4.51445
2 2.77474 11.0065 -4.49543
2 -8.38894 7.88696 4.31699
2 -10.8668 -3.30146 -4.5311
2 -2.76099 -11.0741 4.49399
2 8.39406 -8.05516 -4.38941
2 9.40343 2.31434 6.59168
2 2.70001 9.46989 -6.59332
2 -6.82163 7.13454 6.81283
2 -9.45663 -2.3035 -6.57524
2 -2.81663 -9.59035 6.67071
2 6.98221 -7.11081 -6.68558
2 8.01737 1.40046 8.87584
2 2.69689 8.10282 -8.93518
2 -5.4201 6.37436 8.88718
1 -2.80873 -7.90298 9.03248
2 5.56753 -6.50315 -8.90753
1 6.5723 0.696788 11.0382
2 2.66222 6.52135 -11.2247
2 -4.13008 5.55012 11.0996
2 -6.7717 -0.612185 -11.0634
1 -2.80586 -6.42318 11.3156
3 4.10532 -5.6059 -10.9835
2 10.9373 7.94515 -2.3204
1 -1.64866 13.8732 2.79415
2 -12.4594 5.58275 -2.2288
2 -11.1147 -7.81476 2.15072
2 1.33276 -13.6628 -2.30326
2 12.101 -5.65189 2.28363
3 2.52014 0.237799 -13.2891
1 9.78628 8.11742 -5.71463
2 -2.70818 12.6858 4.62733
2 -12.3229 4.02071 -4.32541
2 -9.44389 -8.46059 4.46712
2 2.78195 -12.6539 -4.47305
2 12.2793 -4.03611 4.5084
2 -1.45119 2.18894 13.3519
2 1.47159 2.57211 -13.4648
2 10.9663 6.5222 2.08294
2 0.0193208 12.5344 -2.17529
2 -10.8785 6.47074 2.31026
2 -11.0553 -6.41937 -2.11343
2 -0.179171 -12.6613 2.15577
2 11.1164 -6.25902 -2.36595
2 9.43428 5.55714 4.50651
2 0.0635434 11.0534 -4.38138
2 -9.72132 5.37373 4.32725
1 -7.93806 -3.20752 -4.35743
2 9.62171 -5.6885 -4.38817
2 8.04577 4.5681 6.73119
2 -0.0771008 9.54553 -6.56293
2 -8.18018 4.77548 6.59405
2 -8.02304 -4.71872 -6.61688
2 8.25904 -4.70362 -6.61514
2 6.77986 3.89943 8.80357
1 0.00605257 7.78546 -8.92087
2 -6.86699 3.96422 8.992
2 -6.77497 -3.95984 -8.99809
2 -0.153181 -7.83292 8.97765
2 6.86471 -4.15248 -9.03696
2 5.63169 3.12044 11.1468
3 0.0779666 6.44228 -11.0288
2 -5.44025 -3.06667 -11.0888
2 -0.00507918 -6.39972 11.2011
2 5.26909 -3.07054 -11.1309
2 9.58676 10.1794 -2.1097
2 -4.09598 13.447 2.29886
2 -13.8718 3.20224 -2.13297
1 -9.60158 -10.0784 2.22131
2 3.95213 -13.4085 -2.36816
2 13.6117 -3.40557 2.19146
2 -0.0145302 4.68004 13.4934
3 4.07669 2.55974 -13.4193
2 -2.90031 12.682 -2.02406
2 -12.2279 4.07217 2.17001
2 -9.71581 -8.71771 -2.32822
2 2.70061 -12.6168 2.28804
1 8.12038 7.88098 4.44576
2 -2.82199 11.0978 -4.40836
2 -11.1355 3.19264 4.36235
2 -8.09331 -7.78729 -4.36798
2 2.64345 -11.0044 4.45214
2 10.9999 -3.23943 -4.35148
1 6.82069 7.00489 6.6846
2 -2.74037 9.44527 -6.59335
2 -9.65967 2.37024 6.57302
2 2.69092 -9.41943 6.68613
3 9.67297 -2.28555 -6.71002
2 5.50882 6.19091 9.08317
2 -2.91514 7.84484 -8.63717
2 -8.33151 1.53769 8.90962
2 -5.32868 -6.24212 -9.01516
2 2.52877 -7.92821 9.20894
2 8.18786 -1.73596 -8.88785
2 4.07834 5.53785 11.2258
2 -2.70362 6.31337 -11.0772
1 -6.94069 0.917786 11.0889
2 -4.10417 -5.45636 -11.0627
1 2.75169 -6.36149 11.4273
2 6.64221 -0.902002 -11.1173
2 8.06511 10.9618 2.22535
3 -5.68617 12.6372 -2.19806
2 -13.5633 1.70615 2.20497
2 -8.08832 -10.9092 -2.31616
2 5.3506 -12.6216 2.25406
2 13.4341 -1.55944 -2.2631
2 6.86679 10.2316 4.60685
2 -5.57301 11.0167 -4.31139
2 -12.4501 0.764409 4.57314
2 -6.66719 -10.2762 -4.48835
2 5.36381 -11.0803 4.31382
2 12.3497 -0.835091 -4.45578
2 5.71091 9.53586 6.77014
2 -5.43434 9.4432 -6.5473
2 -10.9858 -0.014444 6.72273
2 -5.20132 -9.31739 -6.63201
2 5.44691 -9.50103 6.75912
2 11.0089 0.0282839 -6.76795
2 4.10822 8.68609 9.013
2 -5.46449 7.98364 -8.78393
2 -9.60598 -0.860673 8.93163
2 -3.91348 -8.64743 -8.7935
2 5.37095 -7.9067 8.94329
2 9.509 0.748192 -9.03846
2 2.70567 7.86329 11.2162
1 -5.51427 6.19062 -10.9506
2 -8.30613 -1.62332 11.2044
2 -2.81812 -7.78273 -11.0943
2 5.66495 -6.23029 11.2587
2 8.18343 1.6661 -11.0175
1 18.9725 -0.104276 -0.0492718
2 9.42386 16.4733 -0.109696
3 -9.56588 16.4098 0.174783
2 -19.181 0.00817772 -0.0265914
2 -9.48645 -16.6875 -0.028171
2 9.35995 -16.7417 0.0849092
2 9.59743 -5.43574 15.7789
2 -0.0363272 10.9746 15.6988
2 -9.62221 -5.62044 15.7692
2 0.0305564 -11.1776 -15.531
2 9.41312 5.42477 -15.6231
2 -9.53131 5.49657 -15.2832
2 17.6002 2.32383 -0.116753
2 17.4714 -0.879775 2.14331
2 17.7751 0.701318 -2.3369
2 6.76427 16.5206 -0.19172
2 9.50139 14.9129 -2.47319
2 -10.9644 14.0525 -0.0848335
2 -8.2179 15.8883 2.30179
2 -17.6854 -2.50493 -0.171179
2 -17.7799 -0.910192 2.18218
2 -17.8526 0.625519 -2.17285
2 -6.92636 -16.6272 -0.0949911
2 -9.55199 -15.1636 2.18456
2 -8.22849 -15.941 -2.21937
2 11.0891 -14.2335 -0.0268914
2 9.68393 -14.9188 2.21027
2 8.05086 -15.9071 -2.08894
2 8.28204 -3.26283 15.4721
2 6.9735 -5.54252 15.7331
2 -1.2422 8.51441 15.6404
2 1.29709 -8.59269 -15.4486
2 -1.24756 -8.663 -15.3795
2 6.78375 5.45903 -15.7618
2 16.4104 4.76058 -0.0966279
2 16.3064 -1.79667 4.43415
2 16.3659 1.34829 -4.68058
2 4.04778 16.6081 -0.137828
2 6.74992 14.9726 4.50512
2 9.3727 13.4396 -4.51104
2 -12.2733 11.7693 0.0809215
2 -6.9351 15.127 4.40811
2 -9.5702 13.5608 -4.27994
1 -16.5545 -5.06717 -0.02174
1 -16.3054 -1.59262 4.28291
2 -16.2762 1.33107 -4.44765
3 -4.18825 -16.4483 0.155116
2 -9.55616 -13.3815 4.33367
2 -6.78024 -15.0363 -4.51215
2 12.3115 -11.8463 -0.0112689
2 9.59746 -13.5188 4.56615
3 6.95298 -15.112 -4.31305
2 6.66602 -0.706365 15.5866
2 4.07837 -5.74623 15.848
2 -2.60402 6.18918 15.6529
2 2.8011 -6.3303 -15.478
2 -2.47979 -6.1799 -15.4925
2 4.13326 5.51158 -15.7133
2 14.7809 7.02886 -0.137257
2 15.1035 -2.36792 6.77833
2 15.0037 2.6184 -7.01466
2 1.52781 16.7994 -0.0503018
2 5.43431 14.1209 6.75544
2 9.34755 11.9753 -6.69145
2 -13.705 9.297 0.117254
3 -5.30768 14.3243 6.47764
2 -9.65829 12.0184 -6.75419
2 -15.0432 -7.24492 0.0338736
2 -15.0585 -2.40431 6.7404
2 -14.9822 2.2853 -6.65953
2 -1.37603 -16.4911 0.0614769
2 -9.649 -11.951 6.61809
3 -5.38045 -14.1279 -6.71106
2 13.6411 -9.53753 -0.00805736
2 9.58268 -11.9946 6.82506
2 5.50887 -14.5117 -6.45168
2 5.38227 1.56801 15.6407
2 1.44095 -5.63333 15.7436
2 -4.08068 3.79999 15.5543
2 4.04354 -3.9245 -15.5969
2 -3.9645 -3.71877 -15.4876
2 1.3016 5.58002 -15.5715
2 13.7389 9.34092 -0.0523119
2 13.6129 -3.17631 8.82632
3 13.5171 3.10442 -9.03581
2 -1.30754 16.5587 0.200204
2 4.07904 13.4442 8.94452
2 9.3071 10.4643 -9.00927
2 -15.0715 7.10337 0.248663
2 -4.03783 13.5675 8.87292
2 -9.51328 10.1375 -8.89909
2 -13.5848 -9.62963 0.0911664
1 -13.6779 -3.09325 8.90466
2 -13.7966 3.04432 -8.88466
2 1.55443 -16.4649 -0.0483359
2 -9.50045 -10.3277 8.76352
2 -4.09111 -13.5454 -8.94107
2 14.884 -7.14728 -0.179382
2 9.62135 -10.4772 9.06152
1 4.00323 -13.4901 -8.80519
3 4.25568 3.82424 15.3861
2 -1.29467 -5.50953 15.741
2 -5.43411 1.64387 15.5363
2 5.35527 -1.68023 -15.5246
2 -5.43592 -1.43152 -15.7987
1 -1.23111 5.50172 -15.5573
2 12.2401 11.7005 -0.137827
2 12.3995 -4.11625 11.3362
2 12.1684 3.95346 -11.0976
2 -4.00073 16.4541 0.110768
2 2.82958 12.8329 11.4167
2 9.39357 8.75985 -11.2339
2 -16.6339 4.75612 0.0492364
2 -2.49489 12.6795 10.95
2 -9.62884 8.61585 -11.0215
2 -12.2232 -11.7423 0.112302
2 -12.2731 -3.64873 11.1789
2 -12.4358 3.90865 -10.9916
2 4.07007 -16.6667 -0.151548
1 -9.61348 -8.52115 11
2 -2.62084 -12.7487 -11.2029
2 16.464 -4.95414 -0.135696
1 9.64927 -8.82307 11.2932
2 2.71909 -12.5165 -11.1171
1 2.77972 6.22688 15.5594
2 -4.23703 -5.41222 15.6459
2 -6.59128 -0.973385 15.5904
2 6.57378 0.773034 -15.688
2 -6.73805 0.812333 -15.5542
2 -4.08015 5.44408 -15.4249
2 11.0907 -4.83762 13.5297
2 10.7412 4.79131 -13.3128
2 -6.96774 16.6957 0.230447
2 1.25317 12.0525 13.5815
2 9.53716 7.18392 -13.2886
2 -17.7617 2.15531 0.162029
1 -1.44648 11.8649 13.3945
2 -9.65157 6.98857 -13.2316
2 -10.8327 -14.2833 -0.0472467
2 -11.0541 -4.99236 13.3362
2 -11.1129 4.60298 -13.3019
2 6.5969 -16.6156 -0.0905405
2 -9.58191 -7.09875 13.4435
2 -1.41776 -11.7824 -13.4258
2 17.6885 -2.50249 0.0175375
2 9.66871 -7.13894 13.5749
2 1.32854 -11.9386 -13.2333
2 1.58705 8.4916 15.5096
3 -6.89867 -5.45464 15.731
2 -8.33579 -3.35776 15.6402
2 8.05967 3.16465 -15.4758
2 -7.97414 3.22885 -15.306
2 -6.97946 5.51238 -15.5547
2 16.3821 2.97226 -2.38657
2 5.472 15.8372 2.10158
2 -11.1064 12.6962 -2.16749
1 -16.6623 -3.39139 2.01675
2 -5.42963 -15.873 -2.15103
2 10.976 -12.556 2.24819
2 5.38908 -3.096 15.77
3 0.154887 -6.21533 -15.4525
2 15.2243 4.02363 -4.72438
2 4.09125 15.0745 4.54891
2 -10.8595 11.025 -4.43998
2 -15.0916 -3.99935 4.41191
1 -4.01009 -15.1499 -4.58448
2 11.0069 -11.1189 4.78348
2 2.88881 -3.1012 15.7532
3 -1.3222 -3.69141 -15.5824
2 13.6221 4.86724 -6.74571
2 2.84165 14.244 6.78842
2 -10.8771 9.50113 -6.63881
3 -13.7606 -4.74443 6.71444
2 -2.58442 -14.1312 -6.74021
2 11.0292 -9.65965 6.82532
2 0.207386 -3.19758 15.6609
2 -2.73471 -1.37871 -15.3972
2 12.1752 5.49796 -8.90084
2 1.47506 13.5112 8.93054
3 -11.0887 7.96002 -8.84785
2 -12.4167 -5.48303 9.00544
2 -1.3136 -13.3399 -8.91676
2 11.0641 -8.0578 8.9068
3 -2.62224 -3.17554 15.613
2 -4.07432 0.960255 -15.4221
3 10.8385 6.5297 -11.1069
1 0.154274 12.9677 11.1226
3 -10.8903 6.19322 -11.1705
2 -10.9124 -6.2503 11.1254
2 -0.0461856 -12.5246 -11.1359
2 11.0465 -6.51752 11.3099
3 -5.46655 3.20897 -15.5061
2 16.2652 1.5251 2.17962
3 6.91578 15.0447 -2.32701
2 -9.62872 13.4748 2.30699
3 -16.4321 -1.68423 -2.22111
2 -6.77736 -14.7145 2.14057
2 9.56551 -13.281 -2.08273
2 14.8836 0.663679 4.31947
2 6.761 13.5923 -4.46498
2 -8.14221 12.6621 4.52103
2 -15.1001 -0.890589 -4.36484
2 -6.90939 -13.3065 4.53658
2 8.15513 -12.7491 -4.34191
2 13.6679 -0.0974836 6.8197
2 6.76394 11.8915 -6.8205
2 -6.64604 11.8209 6.66543
1 -13.6591 -0.00983698 -6.46902
2 -6.80794 -11.9283 6.64398
2 6.87579 -11.9395 -6.72533
2 12.4308 -0.806745 9.0576
2 6.76313 10.324 -8.95785
2 -5.22674 11.1779 8.94333
3 -12.3544 0.865322 -8.80317
2 -6.72331 -10.1844 8.91776