3997
 Atoms. Timestep: 6000
2 0.0562938 0.196242 0.0476065
2 2.76163 -0.0817978 0.0355849
1 1.427 2.4013 0.117357
2 -1.45031 2.27622 -0.0494147
2 -2.8083 0.155564 -0.130487
2 -1.44642 -2.30145 0.0462887
2 1.51988 -2.49053 0.0199374
2 1.40337 -0.944777 2.18663
3 -0.109434 1.63254 2.12103
2 -1.49644 -0.654905 2.28694
2 -0.0410519 -1.71522 -2.25429
2 1.43366 0.88101 -2.17737
2 -1.32153 0.722232 -2.26151
2 5.57449 -0.0511033 -0.0331903
2 2.74659 4.79753 -0.132279
1 -2.8432 4.85831 0.0192404
2 -5.5779 -0.0578144 0.0738932
2 -2.83946 -4.75706 -0.17067
2 2.82402 -4.93027 0.0952961
2 2.85369 -1.65731 4.46825
2 0.112118 3.07932 4.40525
2 -2.73045 -1.65285 4.56632
2 -0.275048 -3.44131 -4.62701
2 2.6775 1.55968 -4.52108
2 -2.6885 1.4796 -4.48018
2 3.99289 2.31245 -0.0746082
2 4.09011 -0.928185 2.13028
2 4.11361 0.622251 -2.09894
2 -0.0710868 4.68971 0.0888261
2 1.40208 3.805 2.23515
2 2.72054 3.23452 -2.27401
2 -3.96866 2.43771 0.0921372
2 -1.36195 3.94055 2.22265
2 -2.74301 3.19674 -2.34572
2 -4.22394 -2.37238 0.0129801
1 -4.11785 -0.794916 2.267
2 -4.08856 0.904845 -2.15882
2 -0.10471 -4.72176 -0.0568001
2 -2.80029 -3.14979 2.21566
2 -1.44344 -3.92809 -2.30635
2 4.32196 -2.51655 -0.0827431
2 2.89246 -3.22532 2.18824
2 1.3686 -4.05426 -2.25579
1 1.42612 0.76551 4.44171
2 -0.0439141 -1.49555 4.51144
2 -1.26452 0.868866 4.43462
2 1.29383 -0.746129 -4.4325
2 -1.45776 -0.981612 -4.34742
3 -0.0302149 1.64013 -4.41018
3 2.84355 1.47987 2.23409
2 -0.0271127 3.25422 -2.33394
2 -2.78706 1.69324 2.36486
2 -2.89545 -1.72316 -2.33083
2 0.0634791 -3.24634 2.31247
2 2.62636 -1.59547 -2.24587
2 8.36494 0.122348 0.0966687
2 4.14053 7.08815 -0.010874
2 -3.9913 7.21947 -0.0784931
2 -8.40001 -0.082141 -0.192368
2 -4.13259 -7.18222 -0.124571
2 4.06914 -7.33093 0.113271
2 4.09734 -2.19791 6.70719
3 0.324791 4.65877 6.66436
2 -4.41898 -2.34224 6.81319
3 0.0712155 -4.8251 -6.93236
2 4.13065 2.37935 -6.70243
2 -4.0437 2.24057 -6.50528
2 6.81391 2.27257 0.0500019
2 6.97568 -0.910289 2.29068
2 6.74766 0.598522 -2.48974
2 1.56781 7.082 -0.0497217
2 2.67907 6.42627 2.15771
2 4.01119 5.6225 -2.37778
2 -5.5584 4.87348 0.11357
2 -2.81114 6.26115 2.24947
1 -4.31369 5.33419 -2.22247
2 -6.80491 -2.45555 -0.217545
2 -7.01961 -0.72147 2.31227
2 -6.96997 0.852081 -2.20554
2 -1.38202 -7.13437 -0.177339
2 -4.09168 -5.36546 2.26351
3 -2.68828 -6.41899 -2.22639
1 5.56114 -4.94002 -0.155887
2 4.16324 -5.54481 2.18805
2 2.66035 -6.45331 -2.26912
2 2.829 0.023494 6.57891
2 1.34906 -2.31635 6.72834
2 -1.31725 2.49591 6.79705
2 1.33037 -2.29826 -6.73453
2 -1.48408 -2.53601 -6.57452
2 1.31097 2.24955 -6.73583
2 5.37071 4.65323 -0.167172
2 5.57088 -1.52487 4.45761
2 5.25412 1.53855 -4.5052
2 -1.3304 7.06455 -0.126029
2 1.45925 5.50184 4.36969
2 4.07775 4.13041 -4.54663
2 -7.0116 2.43397 0.0353084
2 -1.22557 5.47478 4.51275
2 -4.0353 3.85463 -4.44886
2 -5.56747 -4.74469 0.0285826
2 -5.70473 -1.58729 4.60896
2 -5.41837 1.63126 -4.28478
2 1.41909 -7.18564 -0.0876969
2 -4.30432 -3.98581 4.59171
2 -1.412 -5.778 -4.54231
2 6.98315 -2.36028 -0.0869857
2 4.26939 -4.03356 4.42781
2 1.30197 -5.66038 -4.53122
2 1.4949 2.30269 6.73973
2 -1.60875 -2.44333 6.66178
2 -2.82171 -0.17705 6.84734
2 2.71571 -0.0131386 -6.78974
2 -2.90021 -0.0830223 -6.70384
2 -1.31346 2.3091 -6.67854
2 5.58509 3.08291 -2.25901
2 0.108072 6.24367 2.17154
2 -5.54703 3.26647 -2.01675
2 -5.53351 -3.04142 2.20169
2 -0.0498451 -6.45642 -2.28543
2 5.55064 -3.20684 2.17276
2 0.0362638 0.161189 6.79195
2 -0.157755 -0.0398269 -6.57751
2 5.33921 1.56911 2.2327
2 1.16433 5.53643 -2.24887
2 -4.247 4.05165 2.30836
2 -5.65571 -1.43313 -2.40476
2 -1.35896 -5.62309 2.29501
2 4.08784 -4.04945 -2.22047
2 4.00999 0.656888 4.36009
2 1.10748 3.97378 -4.45285
2 -2.70195 3.21994 4.55231
2 -4.08759 -0.857765 -4.41833
2 -1.33304 -4.10841 4.36674
2 2.64352 -3.10929 -4.48331
2 4.10349 3.89277 2.1629
2 -1.37752 5.51402 -2.52466
2 -5.59863 1.60905 2.2066
2 -4.38692 -4.03391 -2.23679
2 1.38687 -5.50311 2.32946
1 5.45701 -1.73555 -2.3094
2 2.80276 3.0354 4.56338
3 -1.40446 3.81899 -4.45686
2 -4.17411 0.790115 4.69007
3 -2.79855 -3.2639 -4.53923
2 1.36293 -4.0391 4.4777
2 4.10618 -0.80367 -4.49037
2 11.0077 -0.111737 -0.037517
2 5.58485 9.45151 0.143733
2 -5.52551 9.52704 -0.0300409
2 -11.0661 -0.0880009 0.0451285
3 -5.49963 -9.43137 0.107421
2 5.41734 -9.50702 -0.0270645
2 5.48268 -3.23448 8.87519
2 0.0793581 6.2952 9.10646
1 -5.60396 -3.23242 8.95955
2 -0.00740724 -6.26292 -9.04538
2 5.39157 3.25297 -8.97362
2 -5.4428 3.10037 -8.96208
2 9.5177 2.3708 0.0310668
2 9.72257 -0.824293 2.37988
2 9.52459 0.880353 -2.36377
2 2.82051 9.3757 -0.0139871
1 4.09079 8.72641 2.32896
3 5.52138 7.78162 -2.26884
2 -6.80843 7.1755 0.0841287
2 -4.01573 8.72265 2.21815
2 -5.63841 7.80059 -2.19024
2 -9.58694 -2.3649 -0.0791868
2 -9.68472 -0.793371 2.09918
2 -9.68583 0.843742 -2.34006
2 -2.75274 -9.60123 -0.0552753
2 -5.55936 -7.93085 2.19207
2 -4.02619 -8.76561 -2.27246
2 6.92751 -7.22161 -0.0245582
2 5.40551 -8.01293 2.29858
1 4.17355 -8.83895 -2.17228
2 4.02631 -0.784165 8.8967
2 2.75146 -3.10622 8.77664
2 -1.39854 3.91286 9.05449
2 1.35734 -3.88601 -9.02831
2 -1.32034 -3.91814 -8.91851
2 2.65648 3.34943 -8.97791
2 8.10769 4.73927 -0.143815
3 8.37078 -1.63804 4.42018
2 8.15177 1.56772 -4.60932
2 0.170547 9.45194 -0.142369
2 2.83164 8.09277 4.47152
2 5.40279 6.35671 -4.54457
2 -8.36923 4.84204 -0.0478419
2 -2.65569 7.81521 4.32071
1 -5.57854 6.42544 -4.49035
2 -8.2846 -4.86183 0.00397119
2 -8.37183 -1.51062 4.42264
2 -8.27467 1.70864 -4.6198
2 -0.0850955 -9.72719 0.0225391
2 -5.51255 -6.30156 4.40718
2 -2.67742 -8.12431 -4.42628
2 8.1936 -4.8511 -0.0560443
2 5.34703 -6.49931 4.5021
2 2.91569 -8.10881 -4.37962
2 2.78227 1.56301 8.863
2 -0.114355 -3.03911 8.94552
2 -2.83505 1.55419 9.08587
2 2.71514 -1.68691 -8.92113
2 -2.64023 -1.62792 -8.92348
2 -0.0491557 3.14941 -8.83249
2 6.75152 6.98233 -0.0139491
2 7.0012 -2.30965 6.68917
2 6.66248 2.28306 -6.79996
2 -2.63014 9.56741 -0.108833
2 1.49954 7.18296 6.58894
2 5.44622 4.90926 -6.7797
2 -9.69564 2.45801 -0.00778746
2 -1.316 7.11147 6.68283
1 -5.2965 4.75655 -6.7617
3 -6.76436 -7.04485 0.0872421
2 -6.94402 -2.42529 6.83567
2 -6.84292 2.37752 -6.64977
2 2.66188 -9.54741 0.0623233
2 -5.53645 -4.93883 6.64533
2 -1.39794 -7.10991 -6.77773
2 9.71102 -2.4969 -0.0649117
2 5.53419 -4.94116 6.73437
2 1.29836 -7.05977 -6.70404
2 1.46232 3.97146 8.88865
2 -2.81939 -3.09187 9.02173
3 -4.26878 -0.924151 9.12243
2 4.10062 0.844227 -9.06656
2 -4.12348 0.773133 -8.90934
2 -2.63715 3.3221 -8.95771
2 8.14292 3.08216 -2.33478
3 1.43619 8.6315 2.03933
2 -6.88354 5.51317 -2.12292
2 -8.26554 -3.07861 2.12496
2 -1.31553 -8.84281 -2.27231
2 6.84354 -5.7787 2.3055
2 1.37029 -0.684326 8.79082
2 -0.0150479 -1.46559 -8.86336
2 6.6934 3.95034 -4.56998
2 0.138558 7.83678 4.31354
2 -6.80395 3.92754 -4.31784
2 -6.93293 -3.95467 4.38759
2 0.142155 -7.99851 -4.34736
2 6.9018 -3.93537 4.44506
2 -1.46152 -0.733881 8.87192
2 -1.33822 0.70798 -9.10218
2 8.18515 1.64941 2.23926
2 2.81771 7.98198 -2.23418
2 -5.59824 6.39226 2.09349
2 -8.33139 -1.56288 -2.49318
2 -2.78492 -7.90276 2.11279
2 5.578 -6.37975 -2.19385
2 6.91759 0.903702 4.40686
2 2.57371 6.41787 -4.45015
2 -4.14625 5.52056 4.46609
2 -6.96981 -0.651939 -4.44569
2 -2.7991 -6.39972 4.41035
2 4.13152 -5.5391 -4.45299
2 5.58669 0.0554292 6.44185
2 2.66667 4.7662 -6.6909
2 -2.68069 4.75365 6.73865
2 -5.65786 -0.0188516 -6.67794
2 -2.70118 -4.87414 6.68109
2 2.72797 -4.79964 -6.57902
2 6.76479 5.43195 -2.39986
2 -1.16486 8.6011 2.06824
2 -8.32891 3.27055 -2.11551
2 -6.75568 -5.45211 2.19853
2 1.37243 -8.87262 -2.22156
2 8.29472 -3.23467 2.18794
2 0.112528 1.70286 9.04029
2 1.40067 0.766373 -8.98587
2 6.85525 3.83144 2.37051
2 0.0105248 7.93808 -2.36756
2 -6.97311 4.02603 2.335
2 -7.05282 -4.08883 -2.26498
2 -0.0932478 -7.94033 2.11495
2 6.91038 -4.06134 -2.34879
3 5.48254 3.17762 4.37593
2 -0.161177 6.19167 -4.67501
2 -5.43599 3.18968 4.59765
2 -5.47417 -3.24412 -4.45936
2 0.0944843 -6.39282 4.40527
2 5.41327 -3.15151 -4.47415
2 4.40075 2.50142 6.72688
2 -0.114016 4.63579 -6.77735
2 -4.00612 2.31916 7.00541
2 -4.26005 -2.53323 -6.68236
2 0.0162753 -4.6965 6.62923
3 4.08258 -2.28208 -6.67194
2 5.45658 6.33444 2.21144
2 -2.82675 8.07728 -2.43195
2 -8.33009 1.64567 2.20329
2 -5.49879 -6.50339 -2.19482
2 2.61485 -8.08308 2.33865
1 8.25833 -1.63403 -2.2436
2 4.07011 5.69884 4.44902
2 -2.99239 6.24685 -4.51258
2 -6.95629 0.795951 4.68543
2 -4.23452 -5.66731 -4.47798
2 2.71343 -6.42894 4.49475
2 6.97626 -0.756054 -4.60345
2 2.85043 4.7986 6.64194
2 -2.76649 4.68901 -6.68953
2 -5.48928 0.0200657 6.88375
2 -2.77625 -4.76912 -6.61973
1 2.7335 -4.72339 6.59149
2 5.42127 -0.0589343 -6.78447
2 13.9201 -0.0439487 -0.102515
2 6.9397 12.0006 0.105032
2 -6.92669 11.9507 -0.0540427
2 -13.685 0.0584331 -0.208279
2 -6.86708 -11.8537 0.115883
2 6.73848 -11.8884 -0.0804843
2 7.00664 -4.06039 11.1512
3 -0.224447 7.89206 11.12
2 -6.99265 -4.00279 11.1894
2 0.105123 -7.9285 -11.0879
3 6.64665 4.05977 -11.0128
2 -6.68958 3.93725 -11.2165
2 12.3037 2.42029 -0.141075
2 12.3519 -0.897696 2.10566
3 12.4414 0.789958 -2.33646
1 4.13325 11.8513 0.111835
2 5.52043 11.0875 2.33332
2 6.94035 10.1865 -2.24478
2 -8.16051 9.5028 0.0691625
2 -5.46922 11.1901 2.25285
2 -6.74604 10.343 -2.17729
2 -12.2827 -2.42908 -0.0744081
2 -12.3899 -0.773938 2.21327
2 -12.4365 0.734369 -2.30352
2 -4.12409 -11.9298 0.158475
2 -6.94963 -10.2086 2.28586
2 -5.50669 -11.1006 -1.96163
1 8.30712 -9.6075 0.156817
2 6.68229 -10.3742 2.21313
2 5.45591 -11.1747 -2.35716
2 5.38137 -1.56393 11.0893
2 4.14592 -3.87238 11.1634
2 -1.38314 5.6081 11.2187
2 1.40744 -5.63674 -11.3279
1 -1.42557 -5.6556 -11.2494
2 4.05219 3.99533 -11.2462
1 10.9231 4.64843 -0.107605
2 11.0274 -1.661 4.53917
2 11.0559 1.61574 -4.44724
2 1.40305 11.997 0.0102483
1 4.26298 10.2244 4.60846
2 6.76898 8.67094 -4.4375
2 -9.56642 7.10873 -0.0019652
2 -4.10084 10.4774 4.5814
3 -6.94034 8.75878 -4.48036
2 -10.9259 -4.70212 0.0831199
2 -11.0475 -1.66813 4.52832
2 -10.8887 1.84161 -4.675
2 -1.45553 -12.0626 -0.0886142
3 -6.84303 -8.54445 4.48176
2 -4.19635 -10.5395 -4.28163
2 9.54683 -7.25894 0.0839659
2 6.75466 -8.82992 4.62898
3 4.09726 -10.4707 -4.52093
2 4.01919 0.785753 11.2519
2 1.47863 -4.03913 11.1164
2 -2.50066 3.23452 11.4267
2 2.72591 -3.2029 -11.1471
3 -2.60566 -3.1579 -11.2188
2 1.25636 4.00412 -11.0661
2 9.64324 7.05484 -0.036014
3 9.58538 -2.52612 6.65469
2 9.54561 2.35864 -6.71673
2 -1.23649 11.8261 -0.0954303
2 2.80278 9.57862 6.76659
2 6.9086 7.2888 -6.84832
2 -11.145 4.97353 0.0636585
2 -2.72491 9.51373 6.68357
3 -6.80654 7.19034 -6.64467
2 -9.62544 -7.10233 0.158772
2 -9.60495 -2.3526 6.66312
3 -9.58038 2.61808 -7.00644
2 1.25577 -12.1839 0.0840021
2 -6.72715 -7.0853 6.66822
2 -2.63265 -9.73613 -6.6948
2 10.8711 -4.97161 -0.0376509
2 6.88381 -7.21631 6.71859
2 2.83434 -9.40929 -6.74956
2 2.52702 3.09914 11.2281
2 -1.4136 -3.74019 11.1965
1 -4.04839 0.840123 11.3034
2 4.10592 -0.725282 -11.2329
2 -3.89516 -0.929787 -11.1436
2 -1.29434 4.07368 -11.3313
2 8.21629 9.50486 0.156406
2 8.22466 -3.14599 8.85268
2 8.034 3.13226 -9.01213
2 -4.10751 12.005 -0.251517
2 1.21623 8.71809 8.93155
2 6.79913 5.6236 -8.96999
2 -12.4526 2.37521 -0.0315046
2 -1.32559 8.71686 8.84424
2 -6.75267 5.66082 -9.02246
2 -8.28852 -9.43942 0.0461612
2 -8.41705 -3.12319 9.00749
2 -8.04194 3.22138 -8.8683
2 4.02265 -11.846 0.0474675
2 -6.86486 -5.59908 8.86295
2 -1.34035 -8.72032 -9.0397
2 12.3996 -2.43268 -0.130673
2 6.98464 -5.53064 8.83002
2 1.49945 -8.72847 -8.91463
2 1.28327 5.69388 11.3932
2 -4.08227 -3.97306 11.3294
2 -5.64525 -1.79393 11.1747
2 5.50324 1.64318 -11.2492
3 -5.41625 1.57264 -11.08
2 -4.06728 3.98172 -11.214
2 10.8954 3.07697 -2.23924
2 2.6774 10.8767 2.2259
2 -8.25981 7.86756 -2.25597
2 -11.0439 -3.19674 2.235
2 -2.77811 -11.197 -2.23834
2 8.26327 -8.08318 2.44041
2 2.70934 -1.60404 11.0611
2 0.0242809 -3.31166 -11.0962
2 9.50902 3.94213 -4.5925
2 1.37701 10.1865 4.51023
2 -8.10593 6.42353 -4.40401
2 -9.5741 -4.02086 4.38223
3 -1.23768 -10.2964 -4.57
2 8.30753 -6.27242 4.60981
2 0.0429879 -1.4822 11.3004
3 -1.19634 -0.934618 -11.0893
2 8.30843 4.80586 -6.7868
2 -0.0672836 9.44479 6.65344
2 -8.03114 4.74361 -6.63507
2 -8.40689 -4.86424 6.7752
2 0.0772691 -9.50442 -6.81848
2 8.33788 -4.69549 6.63111
2 -2.68836 -1.42853 11.1123
2 -2.62254 1.44444 -11.2035
2 11.0549 1.56375 2.06384
2 4.15927 10.4658 -2.3153
2 -6.91351 8.6818 2.28478
2 -11.0479 -1.51687 -2.32622
2 -4.26479 -10.4549 2.32262
2 6.82034 -8.76745 -2.30986
2 9.7073 0.867638 4.33229
2 4.13305 8.57096 -4.43072
2 -5.35994 8.06733 4.56742
2 -9.8148 -0.715903 -4.6314
2 -4.19847 -8.78392 4.42464
2 5.49396 -7.89914 -4.53577
2 8.39199 -0.145983 6.56703
2 4.0501 7.07851 -6.69953
2 -3.99186 7.07445 6.70291
3 -8.30963 0.113193 -6.70023
2 -3.95142 -7.23374 6.69122
2 4.03144 -7.06864 -6.69967
2 6.84885 -0.780688 8.64516
2 4.03826 5.39874 -8.91469
2 -2.68674 6.40808 9.02363
2 -6.85999 0.853157 -8.90593
2 -4.17527 -5.47035 8.92556
2 2.67229 -6.30781 -8.95218
2 9.5594 5.45382 -2.37099
2 0.0633247 11.0104 2.10803
3 -9.53934 5.63838 -2.30867
2 -9.61854 -5.60718 2.28727
2 -0.00634125 -11.196 -2.26678
2 9.56213 -5.68858 2.31622
2 1.50224 0.798313 11.1895
2 1.48295 -0.919963 -11.2072
2 8.0759 6.34653 -4.59245
2 -1.30416 10.3437 4.34749
2 -9.5612 4.06637 -4.44389
2 -8.29951 -6.58727 4.59685
2 1.44746 -10.2822 -4.4745
2 9.60274 -3.94728 4.3377
2 -1.34012 0.758398 11.2706
1 0.0170424 1.58717 -11.1374
2 9.76432 3.88435 2.16094
2 1.49265 10.3953 -2.2803
2 -8.2737 6.4293 2.3323
2 -9.60283 -4.10458 -2.25581
2 -1.38759 -10.4593 2.00837
2 8.30316 -6.49641 -2.3279
2 8.23758 3.19646 4.52385
3 1.46035 8.94212 -4.47474
2 -6.97139 5.63645 4.5879
1 -8.17574 -3.1505 -4.57593
2 -1.48279 -8.59496 4.22623
2 6.80599 -5.47299 -4.5083
3 6.88436 2.4367 6.71987
2 1.45912 7.13696 -6.5421
2 -5.41507 4.82943 6.80189
2 -6.94317 -2.32859 -6.74455
2 -1.29064 -7.11903 6.76401
2 5.39244 -4.79842 -6.65779
2 5.62609 1.54978 8.92235
2 1.25637 5.78953 -8.9219
2 -4.04768 3.95802 8.95534
2 -5.26814 -1.65562 -8.9354
3 -1.4159 -5.32403 8.89326
2 4.11615 -4.1083 -8.97238
2 8.17901 7.90462 -2.37874
2 -2.69986 11.0941 2.09363
2 -10.8815 3.35252 -2.24672
2 -8.2888 -8.02479 2.22293
2 2.69055 -11.3001 -2.34801
2 11.0308 -3.20369 2.23194
1 0.123832 3.17507 11.1902
2 2.70687 1.69249 -11.2023
2 8.37177 6.35845 2.22437
1 -1.25307 10.248 -2.3717
2 -9.70083 4.03056 2.22614
2 -8.26122 -6.46994 -2.13247
2 1.32719 -10.5024 2.29301
2 9.58984 -4.12719 -2.21707
2 6.76709 5.50743 4.30229
1 -1.39741 8.58811 -4.53725
2 -8.4641 3.1667 4.45043
2 -6.80216 -5.57079 -4.3824
2 1.30002 -8.78376 4.44954
3 8.16207 -3.04323 -4.43956
2 5.5357 4.71304 6.52743
2 -1.40694 7.13692 -6.81332
2 -6.91141 2.47628 6.85861
2 -5.61082 -4.82558 -6.71766
2 1.50932 -7.03881 6.84282
2 6.89296 -2.34815 -6.74833
2 4.20178 3.92215 8.99799
2 -1.40575 5.50647 -9.04939
2 -5.51639 1.59456 9.06232
3 -4.03626 -4.0214 -8.76602
2 1.14242 -5.45071 8.87494
2 5.51836 -1.68172 -9.06253
2 6.86509 8.53849 2.27135
2 -4.05368 10.3312 -2.27019
2 -11.0699 1.73648 2.24091
2 -6.82836 -8.70934 -2.02345
2 4.03015 -10.4213 2.28787
2 11.0356 -1.58458 -2.27108
2 5.54831 7.93853 4.49868
2 -4.39319 8.74198 -4.51642
2 -9.74079 0.639603 4.59965
1 -5.64457 -8.05255 -4.4887
3 4.03262 -8.86547 4.46273
2 9.69324 -0.8371 -4.52975
2 4.29346 7.17968 6.56336
2 -4.09019 7.19152 -6.62248
3 -8.34548 -0.0860848 6.75733
1 -4.11943 -7.29657 -6.52197
2 4.11615 -7.13208 6.68686
2 8.36816 0.0918115 -6.88753
2 2.80953 6.40973 8.82465
2 -4.11007 5.62041 -8.75934
2 -6.9095 -0.904584 8.95592
2 -2.62854 -6.22884 -9.00525
2 4.15875 -5.36349 8.79216
2 6.67725 0.769951 -8.92833
2 16.5937 0.101317 -0.115589
1 8.4116 14.168 0.0228745
2 -8.17546 14.4325 -0.0999621
2 -16.5688 0.295587 -0.142288
2 -8.31264 -14.2968 -0.0957833
2 8.2483 -14.2274 0.167198
2 8.15671 -4.83884 13.3514
2 0.186408 9.36846 13.2803
2 -8.36969 -4.80419 13.4045
2 0.249953 -9.37488 -13.3995
2 8.0742 4.88382 -13.2272
2 -8.1129 4.6318 -13.2977
2 15.2363 2.44074 -0.157016
2 15.0097 -0.95836 2.23627
2 15.138 0.880239 -2.42582
2 5.55278 14.2233 0.0249309
2 6.90652 13.66 2.36931
2 8.27013 12.5385 -2.27424
2 -9.4524 11.8741 0.0561386
2 -6.85237 13.4458 2.13511
2 -8.19223 12.8277 -2.16444
3 -15.1237 -2.22579 -0.0746479
2 -15.1504 -0.809072 2.22879
2 -15.2573 0.851428 -2.19333
2 -5.52856 -14.2489 -0.13778
2 -8.22263 -12.6587 2.17366
2 -6.69124 -13.508 -2.18897
2 9.60255 -11.9158 0.185813
2 8.30389 -12.7137 2.367
2 6.85433 -13.5147 -2.18731
2 6.73985 -2.39017 13.3258
2 5.3211 -4.7496 13.3823
2 -1.23104 7.05865 13.4409
2 1.37785 -7.00126 -13.4618
2 -1.37066 -7.05369 -13.4195
2 5.40951 4.84624 -13.3024
2 13.7365 4.85152 -0.0796494
2 13.844 -1.54448 4.50752
2 13.6909 1.59185 -4.62096
2 2.90516 14.2396 0.115187
2 5.63071 12.7741 4.60606
2 8.29567 11.0183 -4.47258
2 -10.9393 9.58274 -0.0210748
1 -5.54383 12.9103 4.29355
2 -8.0622 11.0863 -4.43444
2 -13.8431 -4.59104 0.09023
2 -13.735 -1.51752 4.33591
2 -13.7061 1.52235 -4.54356
2 -2.61895 -14.4651 0.00466968
2 -8.26996 -11.096 4.45286
1 -5.5214 -12.7132 -4.42298
2 11.0276 -9.44521 0.0131709
2 8.19635 -11.0582 4.59566
2 5.48453 -12.7935 -4.43583
2 5.30244 -0.173293 13.4997
2 2.73959 -4.66663 13.3579
2 -2.54931 4.66261 13.6364
2 2.71205 -4.61889 -13.4495
1 -2.79138 -4.73572 -13.4543
2 2.80283 4.7231 -13.4246
2 12.1571 7.16881 -0.086832
2 12.4218 -2.45396 6.72255
2 12.3388 2.40659 -6.71177
2 0.0771713 14.2174 0.0527961
2 4.22385 11.9028 6.81584
2 8.12145 9.49385 -6.75458
3 -12.5818 7.23464 0.0166138
2 -3.8696 12.0381 6.68773
2 -8.14738 9.50733 -6.61495
2 -12.3828 -7.02403 -0.00909034
2 -12.4398 -2.48576 6.85623
3 -12.2311 2.52088 -6.68084
3 0.224293 -14.5031 0.0462983
2 -8.25266 -9.39504 6.57822
2 -4.1436 -12.0452 -6.70575
2 12.334 -7.20375 -0.142581
3 8.1783 -9.58365 6.71244
2 4.13882 -11.8614 -6.74287
2 4.12419 2.47112 13.5042
2 0.0334358 -4.73934 13.2414
2 -4.07645 2.46051 13.4354
2 4.21064 -2.48862 -13.142
3 -3.92075 -2.47254 -13.4304
2 0.0299612 4.7726 -13.6131
3 11.0671 9.49225 -0.0922062
2 11.074 -3.1421 8.93161
2 11.0089 3.02022 -9.0158
2 -2.76648 14.3177 -0.0833513
2 2.77745 11.1744 9.11248
2 8.11096 8.00984 -9.1499
2 -13.7505 4.87666 0.0400549
2 -2.66655 11.0392 8.93766
2 -8.22727 7.98626 -8.83618
2 -10.8433 -9.60767 0.0966756
2 -11.1282 -3.31431 9.03455
2 -10.9879 3.23624 -8.99054
2 2.75191 -14.2986 0.126702
2 -8.16043 -8.11345 8.82039
1 -2.65414 -11.2668 -8.95942
2 13.6631 -4.81325 -0.0927128
1 8.03682 -7.92307 8.93352
2 2.84794 -11.0296 -8.89793
1 2.59273 4.75798 13.4442
2 -2.7881 -4.69495 13.4289
2 -5.56678 0.0828241 13.4516
1 5.50102 -0.0783397 -13.389
2 -5.18684 -0.173466 -13.315
2 -2.77661 4.59787 -13.4947
2 9.64997 11.767 0.0719339
2 9.77893 -3.92505 11.1781
2 9.53812 4.07825 -11.0566
2 -5.468 14.3098 -0.056579
2 1.3539 10.1413 11.1545
2 7.88728 6.42536 -11.188
2 -15.2468 2.61736 -0.0725084
2 -1.25763 10.2451 11.2467
2 -8.46422 6.3466 -11.083
1 -9.70354 -12.1845 0.00196651
2 -9.73027 -3.99723 11.2235
2 -9.62724 3.85761 -11.1932
2 5.36116 -14.1675 0.209519
1 -8.20577 -6.35846 11.2992
1 -1.46421 -10.3552 -11.134
2 15.164 -2.31558 -0.0118966
2 8.39306 -6.34906 11.2086
3 1.49152 -10.3964 -11.0481
3 1.41981 7.18159 13.523
2 -5.54611 -4.72719 13.3323
2 -7.0715 -2.48311 13.577
2 6.84418 2.40566 -13.4281
2 -6.61102 2.16698 -13.3327
2 -5.42369 4.73754 -13.5448
2 13.7561 3.20471 -2.38948
2 4.16895 13.3253 2.39132
2 -9.38118 10.3957 -2.21581
2 -13.7029 -3.21508 2.21754
2 -4.03471 -13.5813 -2.09951
2 9.70842 -10.4426 2.49475
3 3.96593 -2.5038 13.3166
2 -0.113956 -4.76313 -13.4844
2 12.4254 3.91755 -4.53815
1 2.87165 12.3982 4.40999
2 -9.39625 8.75722 -4.43259
2 -12.3321 -4.00472 4.50818
1 -2.70578 -12.7857 -4.38835
2 9.56775 -8.60071 4.68948
2 1.40318 -2.41191 13.3872
2 -1.43223 -2.48062 -13.2755
2 10.9194 4.66969 -6.93053
2 1.39992 11.7026 7.03425
2 -9.61088 7.17624 -6.70395
1 -11.0928 -4.86175 6.70532
2 -1.25598 -11.9659 -6.63236
3 9.64872 -7.06529 6.81643
2 -1.49519 -2.35021 13.5372
3 -2.60314 0.0897788 -13.3613
2 9.43457 5.70776 -8.92203
3 -0.142663 11.0802 9.10444
2 -9.49338 5.43458 -8.89452
2 -9.69556 -5.76537 9.05819
2 0.00695792 -11.2147 -9.01474
2 9.59762 -5.53782 9.08126
2 -4.18756 -2.29232 13.2928
2 -4.07331 2.17495 -13.3653
2 13.8031 1.47351 2.14496
2 5.5617 12.7565 -2.20374
2 -8.19791 11.087 2.23781
2 -13.8564 -1.56946 -2.20984
3 -5.56857 -12.6976 2.26036
2 8.32311 -11.2567 -2.23818
1 12.3873 0.781063 4.39352
2 5.49107 11.0976 -4.42935
2 -6.77199 10.3233 4.36909
2 -12.4653 -0.718473 -4.56943
2 -5.52177 -11.1712 4.53774
2 6.83734 -10.3917 -4.62832
2 11.1304 0.0700281 6.83725
2 5.30321 9.53131 -6.56852
2 -5.42137 9.60576 6.74694
2 -10.9794 0.185645 -6.79322
2 -5.45062 -9.46169 6.72963
2 5.49939 -9.50627 -6.68573
2 9.6564 -0.805626 8.74378
2 5.36653 8.0506 -9.11526
2 -4.11307 8.67276 9.17589
2 -9.64303 0.678427 -8.97276
2 -5.33999 -7.79352 8.91798
3 4.23081 -8.72083 -8.91503
2 8.17297 -1.66156 10.8728
2 5.38753 6.39514 -11.2535
2 -2.79543 7.84444 11.2222
2 -8.14021 1.52555 -11.0962
2 -5.46823 -6.25578 11.2166
2 2.83249 -7.96978 -11.0807
2 12.3093 5.45378 -2.30154
2 1.42858 13.2964 2.1792
1 -11.0805 7.92262 -2.14804
2 -12.3917 -5.5835 2.34459
1 -1.36451 -13.4574 -2.19781
2 10.9795 -7.96082 2.37273
2 2.61428 0.136995 13.5694
2 1.44208 -2.36929 -13.4234
2 10.9445 6.3124 -4.41698
1 0.104645 12.5584 4.4721
2 -11.0169 6.39897 -4.51337
2 -11.1281 -6.4507 4.54388
2 0.0870818 -12.5815 -4.37312
3 11.0341 -6.27756 4.44269
3 -0.0254139 -0.235216 13.497
2 0.0999464 0.011226 -13.2869
2 9.59443 7.0868 -6.69323
2 -1.18477 11.9059 6.7512
2 -10.7449 4.87035 -6.67273
3 -9.73901 -7.15362 6.93621
1 1.31268 -11.7795 -6.77202
2 10.8542 -4.86561 6.55998
2 -2.71496 -0.0385833 13.4783
2 -1.28844 2.36287 -13.4572
2 12.4596 3.87019 2.31601
2 2.79221 12.6982 -2.27065
2 -9.57693 8.79172 2.15656
2 -12.4266 -3.91205 -2.24695
2 -2.86025 -12.9664 2.26043
2 9.59343 -8.86715 -2.35678
2 11.1422 3.05216 4.55734
2 2.78973 11.0471 -4.49309
2 -8.21599 7.98769 4.57013
2 -10.9662 -3.0981 -4.54425
2 -2.92253 -11.2327 4.42979
2 8.34438 -7.92667 -4.56362
2 9.71173 2.4065 6.63726
2 2.70162 9.58744 -6.78666
2 -6.61179 7.15962 6.80666
2 -9.72007 -2.29602 -6.82099
2 -2.65603 -9.61341 6.51078
2 6.94749 -7.17737 -6.64743
2 8.27209 1.5117 8.73332
2 2.80753 8.08654 -9.09837
2 -5.47046 6.21001 9.0887
2 -8.36371 -1.62239 -8.85007
1 -2.79625 -7.82035 8.87076
2 5.35602 -6.32619 -8.89035
1 6.79788 0.922977 11.1475
2 2.72422 6.23089 -11.242
2 -4.0154 5.42843 11.2395
2 -6.7043 -0.846454 -10.9622
1 -2.71616 -6.25494 11.1314
3 3.98788 -5.49258 -11.0959
2 11.0185 7.82109 -2.30031
1 -1.3158 13.5557 2.04439
2 -12.3332 5.73316 -2.21753
2 -10.9321 -8.20617 2.27034
2 1.41054 -13.5363 -2.20853
2 12.2211 -5.56376 2.2313
3 1.30553 2.46699 13.545
3 2.85784 -0.0843772 -13.4801
1 9.62959 8.69825 -4.65188
2 -2.7697 12.7553 4.45746
2 -12.2568 4.10042 -4.47261
2 -9.54701 -8.88456 4.41165
2 2.74102 -12.7236 -4.52842
2 12.5058 -4.03475 4.52025
2 -1.2992 2.19976 13.3926
2 1.47849 2.42539 -13.3156
2 11.1203 6.31455 2.17246
2 0.116597 12.8268 -2.28905
2 -11.0799 6.53287 2.14058
2 -10.8976 -6.27379 -2.23495
2 -0.0179181 -12.942 2.23201
2 10.925 -6.39445 -2.22664
2 9.62516 5.4505 4.32127
2 0.0695765 11.1888 -4.37691
2 -9.71355 5.57461 4.4512
1 -9.47492 -5.5229 -4.54741
1 -0.174561 -11.2464 4.37462
2 9.60383 -5.47907 -4.44348
2 8.21236 4.81433 6.71914
2 0.0138025 9.48527 -6.73406
2 -8.35592 4.62177 6.59277
2 -8.17429 -4.79852 -6.54144
1 0.0399347 -9.47457 6.73001
2 8.31261 -4.66104 -6.66333
2 6.90473 4.02558 8.81625
1 -0.0983878 7.80882 -9.08026
2 -6.94463 3.83836 9.01695
2 -6.85457 -3.96188 -8.93814
2 0.0487707 -7.92195 8.94692
2 6.84344 -3.9275 -9.06144
2 5.37849 3.11837 11.3008
3 -0.0447058 6.36688 -11.3486
2 -5.47388 3.1856 11.3244
2 -5.38364 -3.21822 -10.9948
2 -0.223452 -6.19969 11.1147
2 5.56852 -3.29925 -11.1377
2 9.61223 10.1333 -2.20575
2 -4.10408 13.6501 2.17189
2 -13.6276 3.27764 -2.2889
1 -9.61288 -10.3808 2.20633
2 4.0593 -13.6729 -2.30636
2 13.7955 -3.39676 2.17192
2 -0.029866 4.65941 13.4017
3 4.17255 2.39832 -13.4486
2 9.68785 8.65829 2.12332
2 -2.53796 12.5397 -2.37333
2 -12.3958 3.9003 2.327
2 -9.69449 -8.86714 -2.26593
2 2.80275 -12.8057 2.27765
2 12.2392 -3.98331 -2.28508
1 8.2615 7.79708 4.45336
2 -2.63513 11.0751 -4.59125
2 -11.022 3.35616 4.42716
2 -8.34761 -7.97118 -4.56498
2 2.67607 -11.3086 4.46321
2 10.9293 -3.13894 -4.50772
1 6.91006 7.1583 6.76255
2 -2.65876 9.55366 -6.81081
2 -9.70327 2.34389 6.61887
2 -6.88502 -7.24312 -6.68414
2 2.74495 -9.55011 6.73725
3 9.55762 -2.38383 -6.74268
2 5.49231 6.36097 8.80629
2 -2.74593 7.91333 -9.03575
2 -8.33884 1.50791 9.15219
2 -5.23391 -6.36149 -8.89722
2 2.83991 -7.77913 9.02782
2 8.11765 -1.54429 -8.9283
2 4.048 5.54174 11.2115
2 -2.59211 6.27912 -11.2203
1 -6.78564 0.759531 11.1709
2 -3.94218 -5.58734 -11.1619
1 2.95509 -6.14598 11.2044
2 6.78708 -0.696293 -11.318
2 8.24773 11.0762 2.18191
3 -5.46786 12.7356 -2.39903
2 -13.9284 1.62936 2.21301
2 -8.11843 -11.102 -2.01182
2 5.366 -12.6719 2.30904
2 13.815 -1.53074 -2.24861
2 6.95493 10.373 4.60116
2 -5.32204 11.1164 -4.50623
2 -12.4587 0.82594 4.53656
2 -6.85967 -10.544 -4.32251
2 5.42581 -11.2741 4.52964
2 12.2949 -0.856099 -4.49398
2 5.66359 9.57665 6.78551
2 -5.60048 9.46394 -6.62011
2 -11.0286 0.0409488 6.77477
2 -5.41949 -9.80176 -6.53524
2 5.48374 -9.64158 6.87626
2 10.8916 0.0591252 -6.77081
2 4.05695 8.76632 8.94736
2 -5.50933 7.91466 -8.8207
2 -9.84712 -0.79852 8.86284
2 -4.07704 -8.77173 -8.97112
2 5.41064 -7.81183 8.99446
2 9.50114 0.952377 -9.05437
2 2.66172 7.87445 11.3367
1 -5.23821 6.29189 -11.3259
2 -8.35271 -1.67579 11.1636
2 -2.69368 -8.19052 -11.1079
2 5.68946 -6.22973 11.1733
2 8.1655 1.67914 -11.3558
1 19.2431 0.0433681 -0.0833417
2 9.65771 16.4973 -0.0546407
3 -9.51568 16.518 -0.0376849
2 -19.2633 0.164694 -0.068011
2 -9.61417 -16.8607 -0.140574
2 9.61072 -16.5764 0.00943963
2 9.48721 -5.47401 15.8395
2 0.0752721 11.038 15.627
2 -9.79519 -5.67894 15.9624
2 0.000670534 -10.9862 -15.6414
2 9.64786 5.50463 -15.6121
2 -9.5566 5.52528 -15.4856
2 17.8655 2.47312 -0.119833
2 18.0736 -0.736179 2.29104
2 17.9138 0.70748 -2.34954
2 6.96857 16.6723 -0.1027
2 8.32179 15.881 2.13053
2 9.50447 14.9932 -2.30411
2 -11.0153 14.3183 0.0743402
2 -8.38397 15.8402 2.34866
2 -9.51822 15.0844 -2.16237
2 -17.873 -2.14236 -0.00999493
2 -17.8388 -0.459412 2.12056
2 -18.0314 0.765323 -2.25974
2 -6.71126 -16.9259 -0.0766303
2 -9.80882 -15.1866 2.13556
2 -8.2214 -16.0458 -2.25839
2 11.0397 -14.3553 0.103044
2 9.80983 -15.0149 2.34287
2 8.05371 -15.9208 -2.23671
2 7.97885 -3.00714 15.7077
2 6.7093 -5.46659 15.5875
2 -1.16291 8.53383 15.7926
2 1.38646 -8.66731 -15.6165
2 -1.15355 -8.57018 -15.8129
2 6.95591 5.49971 -15.698
2 16.6337 4.71972 -0.0905458
2 16.6297 -1.58893 4.4915
2 16.4505 1.55685 -4.64357
2 4.0987 16.6386 -0.0857189
2 6.92939 15.1833 4.38033
2 9.56169 13.3206 -4.49299
2 -12.2931 11.9759 -0.183223
2 -6.60744 15.1096 4.46737
2 -9.58443 13.4507 -4.4723
1 -16.7021 -4.66533 0.0447316
1 -16.7386 -1.58663 4.54007
2 -16.3393 1.56547 -4.27712
3 -4.0716 -16.5832 -0.142769
2 -9.53521 -13.581 4.34726
2 -6.80075 -15.2733 -4.49915
2 12.3678 -11.8205 0.0321367
2 9.66686 -13.4848 4.63622
3 7.07577 -15.0464 -4.52353
2 6.72345 -0.883107 15.7858
2 4.18585 -5.71947 15.6531
2 -2.66286 6.18923 15.7127
2 2.70703 -6.33102 -15.6226
2 -2.54591 -6.34991 -15.7695
2 4.19691 5.4955 -15.6483
2 15.0722 7.05223 -0.165461
2 15.0869 -2.24465 6.72395
2 14.9785 2.58768 -6.84361
2 1.55506 16.8312 0.100823
2 5.67888 14.4484 6.79452
2 9.57396 12.0185 -6.72888
2 -13.8103 9.45781 -0.0372309
3 -5.18204 14.2822 6.68996
2 -9.65942 11.9482 -6.6362
2 -15.2282 -7.04441 0.0131498
2 -15.1709 -2.45303 6.69216
2 -14.9017 2.19294 -6.57547
2 -1.39776 -16.7465 -0.194347
2 -9.68816 -11.9591 6.51412
3 -5.43619 -14.3051 -6.78986
2 13.7113 -9.57945 -0.109958
2 9.53797 -11.8113 6.82044
2 5.46043 -14.2258 -6.59594
2 5.40875 1.59738 15.5292
2 1.35433 -5.76988 15.7267
2 -4.06059 3.86771 15.7681
2 4.10166 -3.88499 -15.6594
2 -4.12893 -4.00365 -15.5915
2 1.41389 5.65019 -15.6452
2 13.6953 9.23237 0.00263187
2 13.8968 -2.99547 8.9113
3 13.5643 3.47838 -8.86876
2 -1.18582 16.6359 -0.0219284
2 4.25972 13.4649 9.13389
2 9.41827 10.2868 -9.03944
2 -15.1578 7.20666 0.138587
2 -3.97852 13.5833 8.93727
2 -9.85027 10.3447 -8.84747
2 -13.699 -9.50193 0.15022
1 -13.865 -3.27921 8.92276
2 -13.5873 3.06849 -8.96872
2 1.60302 -16.7198 -0.0552132
2 -9.64906 -10.6117 8.87513
2 -4.05263 -13.4039 -8.91115
2 15.0633 -7.19959 -0.149034
2 9.4502 -10.2474 8.97316
1 4.21195 -13.523 -8.89408
3 4.03508 3.85797 15.7922
2 -1.43686 -5.36716 15.5469
2 -5.52395 1.5633 15.627
2 5.48239 -1.56649 -15.7949
2 -5.40473 -1.63767 -15.4078
1 -1.50563 5.45872 -15.6648
2 12.2542 11.9393 0.0254357
2 12.4623 -3.82493 11.1144
2 12.318 4.10377 -11.2534
2 -3.93928 16.6015 0.121208
2 2.78725 12.7103 11.2348
2 9.48467 8.77781 -11.2148
2 -16.5311 5.04636 -0.0168961
2 -2.63117 12.6754 11.1301
2 -9.59542 8.67998 -11.0341
2 -12.4407 -11.7881 -0.0326765
2 -12.5335 -3.96148 11.2564
2 -12.552 3.93798 -11.1356
2 4.25891 -16.5966 0.0853083
1 -9.70162 -8.92306 11.0054
2 -2.77383 -12.7601 -11.2596
2 16.4528 -4.79759 -0.0280852
1 9.53881 -8.79016 11.1943
2 2.87087 -12.7461 -11.1791
1 2.66567 6.28929 15.769
2 -4.30016 -5.46872 15.6614
2 -6.75896 -0.880077 15.7429
2 6.89974 0.761062 -15.672
2 -6.76554 0.741948 -15.52
2 -4.07681 5.4252 -15.7389
2 11.1458 14.1792 -0.0151025
2 10.9378 -4.76169 13.4206
2 10.9965 4.83382 -13.4503
2 -6.97964 16.5967 -0.166289
2 1.40001 11.6949 13.2523
2 9.52421 7.29766 -13.4107
2 -17.9788 2.52437 -0.18895
1 -1.51175 11.5869 13.5087
2 -9.76331 7.24286 -13.278
2 -11.0457 -14.6396 -0.1016
2 -11.1379 -4.87397 13.4106
2 -10.9996 4.77771 -13.2383
2 6.84622 -16.5724 0.111764
2 -9.52994 -7.14742 13.4131
2 -1.39081 -11.7908 -13.4289
2 17.8469 -2.38048 -0.0739442
2 9.53273 -7.12811 13.3416
2 1.53707 -11.7506 -13.4684
2 1.51266 8.63458 15.6606
3 -7.07524 -5.41826 15.6408
2 -8.35397 -3.17912 15.7321
2 8.35394 3.00847 -15.6459
2 -8.03222 3.08303 -15.4848
2 -6.9089 5.33164 -15.8166
2 16.6305 3.19487 -2.37764
2 5.45864 15.7697 2.21644