3997
 Atoms. Timestep: 6000
2 -0.0340523 0.0146695 -0.0556202
2 2.75866 0.00645243 -0.0446808
1 1.28576 2.33465 -0.0653222
2 -1.58457 2.28682 -0.0445566
2 -2.77451 -0.0482694 -0.0436339
2 -1.37362 -2.49554 -0.041987
2 1.46346 -2.42286 -0.0707763
2 1.24333 -0.742554 2.16014
3 -0.0860746 1.35725 2.12088
2 -1.57556 -0.834033 2.06914
2 0.0618883 -1.39765 -2.4379
2 1.40893 0.803868 -2.22078
2 -1.48962 0.724983 -2.5008
2 5.45398 -0.0647709 -0.111797
2 2.71513 4.7508 0.113065
1 -2.76406 4.7009 0.0896665
2 -5.43012 -0.0632306 0.0777243
2 -2.78717 -4.71059 -0.0035594
2 2.71607 -4.78418 0.0881011
2 2.73786 -1.53506 4.41527
2 -0.036508 3.25124 4.48155
2 -2.84144 -1.59251 4.34177
2 -0.0812197 -3.10812 -4.45547
2 2.86203 1.44381 -4.52412
2 -2.69117 1.7665 -4.61329
2 4.00777 2.42306 0.0377499
2 4.00409 -0.765843 2.18896
2 4.11618 0.822926 -2.05929
2 -0.0120268 4.67693 0.0596056
2 1.39276 3.81491 2.23416
2 2.70231 3.15905 -2.27368
2 -4.18283 2.26225 -0.123485
2 -1.27938 3.81698 2.23021
2 -2.64845 3.29895 -2.37947
2 -4.22718 -2.3417 -0.163075
1 -4.2243 -0.76843 2.34888
2 -4.18306 0.749023 -2.43946
2 -0.0711011 -4.76547 -0.0950017
2 -2.79884 -3.22612 2.14307
2 -1.34008 -3.84701 -2.31312
2 4.22616 -2.3439 -0.0818242
2 2.67218 -3.19051 2.26238
2 1.31631 -3.9703 -2.30079
1 1.22326 0.69501 4.35596
2 -0.0798028 -1.63381 4.49975
2 -1.41833 0.618972 4.42312
2 1.5 -0.800797 -4.54273
2 -1.43498 -0.803812 -4.572
3 0.210046 1.64671 -4.59165
3 2.69076 1.65623 2.34221
2 -0.0496136 3.15839 -2.30341
2 -2.84971 1.54447 2.24271
2 -2.77921 -1.59208 -2.2749
2 -0.0277327 -3.17743 2.09709
2 2.70998 -1.69473 -2.23298
2 8.23798 0.127126 -0.0294892
2 4.18148 7.23358 -0.0228793
2 -4.05203 6.99082 -0.0645005
2 -8.33452 0.0938787 -0.125682
2 -4.16668 -7.13665 0.0271118
2 4.16076 -7.05694 0.11992
2 4.11509 -2.3583 6.85705
3 0.121286 4.74425 6.61633
2 -4.1486 -2.27131 6.73214
3 0.000258896 -4.87519 -6.59823
2 4.11149 2.3919 -6.7085
2 -4.06804 2.19088 -6.78749
2 6.7612 2.38662 -0.0968004
2 6.72421 -0.730345 2.25344
2 6.95898 0.769206 -2.3024
2 1.39116 7.11345 -0.0609183
2 2.80998 6.22574 2.17169
2 4.11775 5.59589 -2.30078
2 -5.46915 4.71961 -0.0736985
2 -2.62125 6.29547 2.18775
1 -3.97349 5.58014 -2.34331
2 -6.91124 -2.23327 0.0295548
2 -6.99219 -0.719687 2.23941
2 -6.87942 0.77626 -2.30315
2 -1.52706 -7.07457 -0.0136532
2 -4.2409 -5.47366 2.29358
3 -2.68184 -6.25066 -2.25668
1 5.32042 -4.69883 -0.0153292
2 4.06998 -5.48881 2.23152
2 2.75987 -6.14405 -2.28451
2 2.78535 0.0573643 6.6309
2 1.40834 -2.31626 6.7546
2 -1.3065 2.45781 6.75141
2 1.35843 -2.50618 -6.71714
2 -1.36977 -2.49616 -6.72058
2 1.41792 2.24278 -6.81231
2 5.50618 4.73276 0.0644785
2 5.47162 -1.62388 4.63751
2 5.50234 1.59658 -4.29885
2 -1.30549 7.06193 -0.0196287
2 1.41915 5.55683 4.36077
2 4.32206 3.97209 -4.47081
2 -6.91608 2.28819 -0.221689
2 -1.36675 5.50577 4.50503
2 -4.06291 3.99245 -4.70544
2 -5.63903 -4.78646 -0.0943164
2 -5.5219 -1.59737 4.45364
2 -5.42427 1.67077 -4.66532
2 1.38242 -7.13099 0.0179136
2 -4.27579 -3.7499 4.52596
2 -1.34249 -5.43523 -4.43559
2 6.75373 -2.33273 0.092381
2 4.11714 -3.99815 4.4863
2 1.25736 -5.44938 -4.49359
2 1.40657 2.4831 6.69124
2 -1.34114 -2.2856 6.68253
2 -2.78682 0.0500977 6.60581
2 2.80314 -0.0736524 -6.7349
2 -2.70265 0.0365722 -6.91252
2 -1.18629 2.2998 -6.7847
2 5.52459 3.25716 -2.1888
2 0.106534 6.30666 2.27616
2 -5.50373 3.16588 -2.47215
2 -5.52904 -3.05735 2.01312
2 -0.132379 -6.39911 -2.0616
2 5.29891 -3.10343 2.37585
2 0.0169156 0.0662032 6.70797
2 0.114946 0.00886316 -6.7949
2 5.44431 1.66998 2.14375
2 1.40804 5.33298 -2.21808
2 -4.14305 3.93758 2.18698
2 -5.60847 -1.58015 -2.29463
2 -1.39561 -5.65423 2.2876
2 4.22828 -3.89764 -2.18283
2 4.15579 0.819983 4.404
2 1.33631 3.83515 -4.49065
2 -2.77861 3.20212 4.37762
2 -4.09483 -0.733534 -4.49375
2 -1.53227 -4.01586 4.51771
2 2.95361 -3.16494 -4.59433
2 4.06588 3.87371 2.26493
2 -1.30832 5.55533 -2.39208
2 -5.56683 1.65645 2.11329
2 -4.08741 -3.90584 -2.26604
2 1.39359 -5.60756 2.26674
1 5.69073 -1.54037 -2.14104
2 2.82597 3.06516 4.51485
3 -1.24719 4.11276 -4.62446
2 -4.22351 0.723747 4.42772
3 -2.81103 -3.13862 -4.47209
2 1.3994 -4.02139 4.6205
2 4.25096 -0.882821 -4.4391
2 10.9519 0.0152347 -0.172641
2 5.60728 9.65753 -0.0640676
2 -5.52065 9.53101 0.195334
2 -10.9491 0.0359681 0.0266823
3 -5.45449 -9.40283 0.0326501
2 5.46963 -9.45589 -0.0063714
2 5.48347 -2.96649 8.99247
2 0.0712812 6.3933 9.03252
1 -5.48069 -3.12274 9.13722
2 0.0687933 -6.36635 -8.88611
2 5.46991 3.27808 -8.99709
2 -5.49227 3.09919 -8.91
2 9.64089 2.44204 -0.0856527
2 9.50098 -0.852369 2.21727
2 9.61315 0.917632 -2.36032
2 2.77879 9.35711 0.055852
1 4.12564 8.6457 2.24395
3 5.54673 8.02892 -2.382
2 -6.91389 7.11038 -0.153904
2 -4.06362 8.59882 2.34785
2 -5.4953 8.0959 -2.40803
2 -9.75682 -2.49775 -0.145956
2 -9.62608 -0.752419 2.23351
2 -9.63403 0.888973 -2.35977
2 -2.68164 -9.57825 0.0309899
2 -5.51534 -7.96826 2.26318
2 -4.0492 -8.53434 -2.13141
2 7.10971 -6.87063 0.117064
2 5.64761 -7.84601 2.20756
1 4.15875 -8.77047 -2.14321
2 4.03926 -0.644589 8.99551
2 2.77757 -3.03813 8.98067
2 -1.2823 3.91648 8.92169
2 1.35028 -4.10594 -8.95991
2 -1.24577 -3.98525 -9.01896
2 2.77588 3.26812 -8.9987
2 8.21543 4.97256 0.0970665
3 8.0876 -1.67327 4.45043
2 8.23399 1.57521 -4.59802
2 0.118552 9.45167 0.0177169
2 2.77082 7.83252 4.35944
2 5.48643 6.33776 -4.45518
2 -8.17694 4.72781 -0.0810708
2 -2.60041 7.97696 4.50313
1 -5.42143 6.45067 -4.48864
2 -8.33182 -4.67886 -0.0134668
2 -8.19483 -1.65671 4.63974
2 -8.17537 1.5783 -4.71508
2 -0.0925804 -9.49313 0.104816
2 -5.39774 -6.22996 4.40147
2 -2.68973 -7.98969 -4.3902
2 8.4112 -4.61446 -0.03151
2 5.40216 -6.34366 4.3593
2 2.73905 -7.94586 -4.34991
2 2.88031 1.60556 8.84944
2 -0.106029 -3.07008 9.00311
2 -2.61981 1.4768 8.89483
2 2.81515 -1.59218 -9.03293
2 -2.64361 -1.65932 -9.23084
2 0.162609 3.28859 -8.98792
2 6.93865 7.26961 -0.10406
2 6.97428 -2.29631 6.7799
2 6.91618 2.29993 -6.76527
2 -2.80656 9.42974 0.207479
2 1.36967 7.10896 6.63967
2 5.59398 4.68249 -6.67476
2 -9.7029 2.37703 -0.016283
2 -1.28404 7.06439 6.67738
1 -5.46881 4.74373 -6.79093
3 -6.95964 -7.11909 0.140583
2 -6.75273 -2.37504 6.83146
2 -6.89464 2.27939 -6.84601
2 2.79233 -9.4576 0.0670506
2 -5.45544 -4.70011 6.8923
2 -1.29257 -7.19452 -6.75381
2 9.52833 -2.24142 -0.109854
2 5.51479 -4.64941 6.84466
2 1.49899 -7.05409 -6.70088
2 1.37732 4.15799 8.81226
2 -2.84485 -2.96801 9.04472
3 -4.08833 -0.697552 8.88622
2 4.2372 0.936261 -8.98772
2 -4.04104 0.770085 -9.07518
2 -2.58985 3.06027 -9.10219
2 8.2245 3.24989 -2.34051
3 1.44194 8.67957 2.13422
2 -6.81206 5.58183 -2.3989
2 -8.31271 -2.98869 2.28939
2 -1.39037 -8.65984 -2.305
2 6.84192 -5.54558 2.24708
2 1.37379 -0.593368 8.85206
2 0.0308243 -1.72178 -8.94878
2 6.87724 3.98463 -4.34631
2 0.074622 8.04718 4.4902
2 -6.89996 4.00416 -4.72371
2 -6.89233 -4.02166 4.35777
2 0.056416 -7.996 -4.45563
2 6.83268 -3.95823 4.60919
2 -1.32858 -0.723637 8.98664
2 -1.24323 0.760967 -9.08164
2 8.18334 1.55117 2.24134
2 2.84954 7.87844 -2.28906
2 -5.55419 6.38027 2.24354
2 -8.4095 -1.62148 -2.33551
2 -2.74591 -7.92331 2.21274
2 5.61851 -6.23863 -2.21089
2 6.83622 0.820434 4.53327
2 2.77961 6.07896 -4.56299
2 -4.18942 5.61936 4.51404
2 -6.76844 -0.777108 -4.49918
2 -2.78553 -6.36766 4.5803
2 4.18756 -5.64314 -4.52663
2 5.62535 0.0396636 6.69488
2 2.69429 4.74767 -6.65496
2 -2.54861 4.72592 6.61796
2 -5.4906 -0.166431 -6.73936
2 -2.81348 -4.47939 6.73312
2 2.68929 -4.65939 -6.57815
2 6.80562 5.6483 -2.27892
2 -1.18786 8.79797 2.24112
2 -8.25446 3.21487 -2.23827
2 -6.83326 -5.33287 2.23095
2 1.39426 -8.73823 -2.05309
2 8.10582 -3.09427 2.36951
2 -0.0953723 1.63918 8.93469
2 1.58835 0.751573 -9.12615
2 6.85548 3.89151 2.15122
2 0.175031 7.86281 -2.36805
2 -6.98269 4.00535 2.18439
2 -6.92305 -3.92572 -2.26697
2 -0.0179962 -7.74801 2.21172
2 6.95972 -3.86188 -2.29093
3 5.48095 3.13305 4.33618
2 0.161905 6.42023 -4.62094
2 -5.55061 3.19614 4.39535
2 -5.51495 -3.14121 -4.3684
2 -0.0390467 -6.29505 4.61258
2 5.59911 -3.11315 -4.49045
2 4.13256 2.44605 6.58209
2 0.126911 4.86343 -6.83906
2 -4.16957 2.46112 6.71187
2 -4.10162 -2.49461 -6.77115
2 0.0357848 -4.87459 6.78335
3 4.16705 -2.26084 -6.75366
2 5.42108 6.29843 2.15302
2 -2.53148 7.87214 -2.22155
2 -8.27712 1.50757 2.30087
2 -5.37933 -6.30499 -2.18305
2 2.90866 -7.86822 2.45857
1 8.50834 -1.47833 -2.38325
2 4.10363 5.31606 4.49429
2 -2.72049 6.33805 -4.60274
2 -6.887 0.855486 4.47635
2 -3.97902 -5.52938 -4.37452
2 2.71216 -6.29301 4.46777
2 6.87093 -0.890545 -4.25475
2 2.72417 4.87772 6.75692
2 -2.68692 4.78558 -6.75756
2 -5.53439 -0.0629577 6.706
2 -2.83141 -4.70599 -6.59765
1 2.79311 -4.80606 6.90788
2 5.43612 -0.0233756 -6.72236
2 13.6067 0.0974716 -0.104388
2 6.96474 12.0374 0.13655
2 -6.99063 11.944 0.0799932
2 -13.8423 -0.010879 0.0116983
2 -6.79921 -11.8494 0.0894585
2 6.87105 -11.8087 0.0667728
2 6.81815 -3.80557 11.1927
3 0.115975 7.89008 11.2365
2 -6.8245 -3.8765 11.4826
2 -0.0900931 -7.95266 -11.2546
3 7.03521 4.08031 -11.1795
2 -6.89735 3.99708 -11.113
2 12.2862 2.35579 -0.0887739
2 12.3291 -0.925492 2.17283
3 12.3618 0.861585 -2.27435
1 4.18827 11.9341 -0.123293
2 5.33282 11.0565 2.41081
2 6.90447 10.3976 -2.22728
2 -8.38826 9.56724 0.0566616
2 -5.41903 11.0433 2.39245
2 -6.80999 10.4176 -2.11454
2 -12.4929 -2.31564 0.0581012
2 -12.2248 -0.643374 2.2637
2 -12.1725 0.811844 -2.33241
2 -4.04456 -11.8122 0.108035
2 -6.85026 -10.273 2.43119
2 -5.48656 -11.0727 -2.01381
1 8.34339 -9.48814 -0.0557423
2 6.94989 -10.2307 2.1557
2 5.40092 -11.0662 -2.30998
2 5.46387 -1.51595 11.1405
2 4.0294 -3.89402 11.3087
2 -1.27974 5.5867 11.1744
2 1.44242 -5.55441 -11.199
1 -1.41572 -5.52346 -11.0147
2 4.29835 4.07405 -11.3313
1 10.9317 4.79081 0.0662894
2 10.8293 -1.58252 4.45022
2 11.0157 1.50821 -4.59431
2 1.4525 12.0031 -0.113018
1 4.0495 10.1392 4.44422
2 6.88025 8.87136 -4.52694
2 -9.77853 7.0904 -0.0342088
2 -4.03397 10.178 4.5056
3 -6.87511 8.83777 -4.53637
2 -11.1983 -4.71387 -0.0258475
2 -10.9529 -1.50533 4.48817
2 -10.8922 1.6857 -4.54702
2 -1.30144 -11.856 0.0483804
3 -6.83179 -8.62333 4.50845
2 -3.97391 -10.2666 -4.30384
2 9.66362 -7.10824 -0.0665713
2 6.92626 -8.57474 4.43086
3 4.11661 -10.3007 -4.48358
2 4.18055 0.835937 11.2121
2 1.40565 -3.86507 11.2039
2 -2.57159 3.23719 11.2485
2 2.74249 -3.20846 -11.1333
3 -2.54956 -3.18759 -11.2513
2 1.35874 4.0288 -11.3126
2 9.63561 7.27842 -0.0213437
3 9.65595 -2.53111 6.8036
2 9.58081 2.4214 -6.73177
2 -1.21189 11.8895 -0.0646832
2 2.8466 9.44928 6.72736
2 6.77441 7.1423 -6.64333
2 -10.9698 4.82227 -0.0298932
2 -2.60954 9.44697 6.67252
3 -6.83683 7.23361 -6.77889
2 -9.66611 -7.01486 0.144302
2 -9.50364 -2.36176 6.78924
3 -9.53987 2.44906 -6.68096
2 1.36591 -11.8166 0.0227255
2 -6.82311 -6.99544 6.67077
2 -2.74534 -9.59842 -6.58074
2 11.1985 -4.81964 -0.0760045
2 6.92697 -7.05988 6.75589
2 2.84379 -9.47642 -6.68969
2 2.7347 3.29644 11.1733
2 -1.35306 -3.95173 11.1272
1 -4.13841 0.931229 11.3279
2 4.16153 -0.744688 -11.3374
2 -4.10548 -0.942073 -11.3083
2 -1.37388 3.89392 -11.3308
2 8.29876 9.59981 -0.0164605
2 8.36474 -3.20271 8.9598
2 8.23563 3.25912 -9.04415
2 -4.25737 11.857 0.0340323
2 1.48318 8.82129 8.98855
2 6.81697 5.71597 -8.9218
2 -12.3621 2.4383 -0.020052
2 -1.24767 8.7892 8.94558
2 -6.88035 5.58052 -8.87409
2 -8.04629 -9.55175 0.00245842
2 -8.24802 -3.0835 9.10343
2 -8.20795 3.18697 -8.92165
2 4.09785 -11.8187 0.0789185
2 -6.95497 -5.27668 9.12719
2 -1.33488 -8.77081 -8.80059
2 12.3624 -2.50966 -0.0358803
2 6.90428 -5.2239 9.0377
2 1.32511 -8.67866 -8.80404
2 1.43606 5.81151 11.0474
2 -4.09121 -3.9666 11.2087
2 -5.3759 -1.56057 11.2477
2 5.56589 1.74535 -11.2115
3 -5.31779 1.41616 -11.1826
2 -4.13982 3.92799 -11.2758
2 10.9357 3.13821 -2.27564
2 2.84453 11.2391 2.06884
2 -8.20817 7.99693 -2.28322
2 -10.971 -3.22623 2.33796
2 -2.69316 -11.1522 -2.15895
2 8.33442 -8.05022 2.25253
2 2.82919 -1.40698 11.1177
2 0.0386315 -3.07357 -11.1925
2 9.65199 3.91731 -4.61041
2 1.46354 10.449 4.28734
2 -8.20431 6.27052 -4.5435
2 -9.58894 -3.90097 4.64597
3 -1.32003 -10.2888 -4.31611
2 8.20573 -6.3177 4.57277
2 0.107269 -1.37782 11.2278
3 -1.3799 -0.846023 -11.3042
2 8.24928 4.75943 -6.68452
2 0.102676 9.56887 6.7514
2 -8.1916 4.80979 -6.74754
2 -8.24588 -4.68158 6.78787
2 0.0603734 -9.54814 -6.53138
2 8.32475 -4.74146 6.70809
2 -2.72639 -1.48704 11.1985
2 -2.59768 1.49063 -11.3698
2 10.8947 1.537 2.23437
2 4.23441 10.3141 -2.11849
2 -6.85395 8.74446 2.28351
2 -11.0606 -1.65255 -2.33108
2 -4.0489 -10.2087 2.2634
2 6.89852 -8.48734 -2.27359
2 9.54242 0.755418 4.38464
2 4.16175 8.61346 -4.52191
2 -5.37622 7.93626 4.46828
2 -9.75702 -0.650461 -4.60209
2 -4.27177 -8.68448 4.59433
2 5.48675 -8.03727 -4.57682
2 8.19184 -0.0173036 6.56867
2 4.16616 7.06888 -6.69951
2 -3.92466 7.05613 6.81406
3 -8.11476 -0.00663698 -6.76466
2 -4.05151 -7.11565 6.70813
2 4.17363 -7.13188 -6.77356
2 6.94188 -0.715328 9.09507
2 4.15134 5.66469 -8.98694
2 -2.64973 6.3573 9.04042
2 -6.90747 0.739425 -8.90165
2 -4.08939 -5.38561 8.97873
2 2.75836 -6.24881 -8.93894
2 9.71329 5.52615 -2.16744
2 -0.0896775 11.0969 2.17868
3 -9.49658 5.62623 -2.1046
2 -9.64266 -5.44545 2.28365
2 -0.0568039 -11.0326 -2.22645
2 9.65579 -5.50957 2.1193
2 1.46223 0.907521 11.211
2 1.37954 -0.782208 -11.2483
2 8.38576 6.38711 -4.45307
2 -1.24556 10.2981 4.52949
2 -9.60017 3.93878 -4.59518
2 -8.25435 -6.30474 4.4078
2 1.53659 -10.3078 -4.39162
2 9.57529 -3.88189 4.57979
2 -1.3214 0.918338 11.365
1 0.061652 1.63674 -11.1885
2 9.59181 4.07898 2.22241
2 1.349 10.267 -2.27
2 -8.36053 6.32727 2.21694
2 -9.65773 -4.04809 -2.19787
2 -1.36708 -10.3219 2.28238
2 8.35461 -6.32678 -2.33223
2 8.26743 3.08419 4.3972
3 1.44618 8.83186 -4.48947
2 -6.97228 5.57563 4.51968
1 -8.32835 -3.0021 -4.56519
2 -1.48413 -8.67398 4.38327
2 6.79258 -5.41021 -4.50434
3 6.87592 2.29771 6.5771
2 1.37337 7.27416 -6.75566
2 -5.57325 4.69202 6.75764
2 -6.85233 -2.51429 -6.65682
2 -1.39874 -7.00405 6.72777
2 5.49203 -4.6273 -6.59041
2 5.48284 1.53942 8.7879
2 1.33095 5.71474 -9.11501
2 -3.95105 4.13745 9.04613
2 -5.3759 -1.68331 -8.99295
3 -1.55275 -5.34536 9.01843
2 4.14065 -3.81218 -8.79891
2 8.26208 8.11631 -2.39064
2 -2.65541 11.0826 2.22811
2 -10.9169 3.20428 -2.31937
2 -8.22176 -7.91762 2.32179
2 2.79625 -11.1101 -2.13112
2 11.0339 -3.1601 2.14061
1 0.202089 3.17505 11.0795
2 2.87702 1.63533 -11.2832
2 8.25969 6.40558 2.41653
1 -1.38287 10.2418 -2.35251
2 -9.6333 3.97375 2.18682
2 -8.27371 -6.42422 -2.22043
2 1.36478 -10.4175 2.266
2 9.53566 -3.90426 -2.27639
2 6.86661 5.43033 4.3426
1 -1.31813 8.72891 -4.58478
2 -8.25561 3.18537 4.61453
2 -6.8762 -5.77659 -4.38001
2 1.29804 -8.71245 4.48256
3 8.21943 -3.31606 -4.62227
2 5.47051 4.77881 6.46489
2 -1.30036 7.27066 -6.79404
2 -6.91973 2.34958 6.80246
2 -5.43555 -4.82366 -6.70219
2 1.44407 -7.0863 6.637
2 6.97381 -2.30869 -6.78723
2 4.0327 3.93804 8.91142
2 -1.47747 5.56257 -8.9104
2 -5.32712 1.60196 8.89943
3 -3.91815 -4.00642 -8.86517
2 1.23675 -5.48424 9.04325
2 5.6308 -1.60583 -8.96047
2 6.72835 8.79355 2.12627
2 -4.086 10.3349 -2.31496
2 -11.1367 1.70399 2.24465
2 -6.84658 -8.53466 -2.21272
2 4.15247 -10.2293 2.2726
2 11.0399 -1.59231 -2.40776
2 5.4317 7.72745 4.45067
2 -4.05054 8.71159 -4.47595
2 -9.59544 0.836633 4.62159
1 -5.46783 -7.98982 -4.32471
3 4.13603 -8.70671 4.46186
2 9.62733 -0.891512 -4.50516
2 4.18661 7.23421 6.71275
2 -3.97328 7.20727 -6.85738
3 -8.1175 -0.0865071 6.74598
1 -3.96383 -7.22106 -6.59782
2 4.21416 -7.14247 6.68107
2 8.26354 -0.110484 -6.66757
2 2.86801 6.53496 8.9143
2 -4.07328 5.42563 -9.05101
2 -6.81258 -0.797499 9.08662
2 -2.64986 -6.35784 -8.90653
2 4.22369 -5.45702 9.01722
2 6.94884 0.895126 -9.0009
2 16.3503 -0.053645 -0.0722226
1 8.23227 14.4095 -0.230885
2 -8.28574 14.3004 -0.0165721
2 -16.6433 0.0812688 -0.0836351
2 -8.23183 -14.1408 0.0937638
2 8.24288 -14.1913 -0.0625274
2 8.17917 -4.83044 13.3862
2 0.0425241 9.42096 13.2938
2 -8.09659 -4.75666 13.5952
2 -0.0557721 -9.42809 -13.3115
2 8.36168 4.68242 -13.324
2 -8.16799 4.6478 -13.4674
2 15.1403 2.35693 0.0118803
2 15.0742 -0.783703 2.11644
2 15.0826 0.728044 -2.23721
2 5.46481 14.2582 -0.118726
2 6.8367 13.6038 2.24415
2 8.23523 12.7535 -2.20264
2 -9.63225 11.9598 -0.06954
2 -6.87947 13.4504 2.30588
2 -8.1503 12.772 -2.23383
3 -15.0054 -2.26921 0.113508
2 -15.1602 -0.740927 2.20049
2 -15.1332 0.772753 -2.28153
2 -5.55921 -14.2495 0.151917
2 -8.11337 -12.6302 2.27022
2 -7.08879 -13.4663 -2.06093
2 9.66465 -11.8697 -0.0158454
2 8.33088 -12.6246 2.22393
2 6.92385 -13.4225 -2.25768
2 6.7471 -2.32217 13.5008
2 5.54021 -4.8616 13.4527
2 -1.22474 7.20223 13.4486
2 1.30491 -7.03468 -13.3316
2 -1.32375 -7.06341 -13.4981
2 5.53778 4.7154 -13.2922
2 13.748 4.68009 -0.0248264
2 13.6708 -1.54235 4.54279
2 13.7502 1.63148 -4.35926
2 2.74555 14.301 0.0269848
2 5.46327 12.7914 4.55826
2 8.1848 11.1683 -4.51131
2 -11.0308 9.46767 -0.0500357
1 -5.61288 12.7021 4.69643
2 -8.16457 11.0151 -4.49534
2 -13.847 -4.66136 0.0183993
2 -13.8715 -1.61843 4.59258
2 -13.5733 1.5611 -4.32595
2 -2.74799 -14.2215 0.0718483
2 -8.30603 -10.9858 4.43181
1 -5.47875 -12.5584 -4.24921
2 11.0453 -9.42237 -0.108136
2 8.1125 -10.9965 4.65225
2 5.5197 -12.7423 -4.44879
2 5.51658 0.0285697 13.4348
2 2.71827 -4.67952 13.4629
2 -2.60853 4.86899 13.5047
2 2.70761 -4.77356 -13.4261
1 -2.81438 -4.60169 -13.4754
2 2.81547 4.67811 -13.4126
2 12.4642 7.09589 0.0232776
2 12.2561 -2.4067 6.69638
2 12.3245 2.44798 -6.64678
2 -0.0444779 14.2252 -0.0539514
2 4.01898 12.02 6.9661
2 8.09815 9.54542 -6.75158
3 -12.3872 7.18579 0.0615537
2 -4.07695 12.0894 6.81593
2 -8.32709 9.57591 -6.69494
2 -12.4874 -7.02097 -0.0527934
2 -12.227 -2.33225 6.81843
3 -12.2966 2.44336 -6.70386
3 -0.0586078 -14.4086 -0.0456407
2 -8.19626 -9.43127 6.7099
2 -4.23268 -11.9022 -6.63933
2 12.4081 -7.25989 0.0974762
3 8.15041 -9.60865 6.7278
2 4.10421 -11.9169 -6.71328
2 3.9868 2.34204 13.5828
2 0.0949479 -4.74638 13.3085
2 -4.19353 2.33216 13.3548
2 4.19983 -2.26919 -13.3628
3 -4.1109 -2.41926 -13.6091
2 -0.0191882 4.756 -13.4372
3 10.9605 9.61594 -0.0891707
2 10.9583 -3.2501 8.93227
2 11.0061 3.18664 -9.00304
2 -2.80505 14.1753 0.0725289
2 2.70019 11.2723 9.13392
2 8.07062 8.01206 -8.96913
2 -13.746 4.82647 -0.0268574
2 -2.66684 11.0397 9.00041
2 -8.24337 8.01016 -8.77044
2 -11.0977 -9.53739 0.107881
2 -11.1333 -3.01956 9.13523
2 -11.0213 3.13253 -8.81979
2 2.57693 -14.2434 0.121535
2 -8.1582 -7.77007 8.88106
1 -2.78871 -11.0583 -8.8126
2 13.7914 -4.87941 -0.0336601
1 8.14909 -7.77384 8.99132
2 2.58599 -11.0073 -9.00418
1 2.82225 4.72806 13.4016
2 -2.78954 -4.71159 13.5239
2 -5.51124 0.103142 13.541
1 5.56646 0.0967483 -13.3849
2 -5.41133 0.0182161 -13.5513
2 -2.69861 4.67666 -13.4829
2 9.60916 11.9484 0.0667385
2 9.58254 -4.10848 11.1517
2 9.68684 4.02759 -11.0768
2 -5.48141 14.3289 -0.140195
2 1.32392 10.2164 11.1404
2 8.24616 6.34143 -11.1006
2 -15.0603 2.52446 -0.0112474
2 -1.38572 10.4281 11.3339
2 -8.06287 6.38296 -11.1213
1 -9.68088 -11.8954 0.01562
2 -9.78963 -3.99068 11.4041
2 -9.50631 3.96359 -11.26
2 5.37049 -14.1672 0.123922
1 -8.2634 -6.27891 11.3127
1 -1.34653 -10.3513 -11.0971
2 15.0195 -2.41522 0.0465971
2 8.19318 -6.50068 11.2894
3 1.34288 -10.0454 -11.0767
3 1.42094 6.95313 13.4415
2 -5.46164 -4.84281 13.5285
2 -6.7711 -2.30813 13.6533
2 6.9741 2.47662 -13.365
2 -6.77034 2.3538 -13.535
2 -5.53534 4.69658 -13.5502
2 13.8251 3.12521 -2.23261
2 4.14862 13.6508 2.1752
2 -9.57477 10.3798 -2.37498
2 -13.8229 -2.94673 2.27043
2 -4.2469 -13.5238 -2.04083
2 9.61788 -10.3178 2.25579
3 4.04103 -2.30985 13.4871
2 -0.0613984 -4.72337 -13.3463
2 12.2768 3.95884 -4.41603
1 2.8734 12.7703 4.65896
2 -9.4669 8.68739 -4.52397
2 -12.435 -3.83927 4.61699
1 -2.89933 -12.6494 -4.39855
2 9.53743 -8.67037 4.57922
2 1.23928 -2.25002 13.3451
2 -1.36886 -2.37913 -13.4928
2 11.1252 4.84511 -6.68619
2 1.21579 11.8674 6.7761
2 -9.71625 7.01438 -6.65644
1 -10.8622 -4.54399 6.91146
2 -1.4167 -11.8992 -6.54503
3 9.62932 -7.12263 6.76982
2 -1.3787 -2.27714 13.4279
3 -2.76823 -0.0158187 -13.5436
2 9.63237 5.61743 -8.89136
3 0.0239312 10.9706 8.90136
2 -9.70064 5.61894 -8.95112
2 -9.52803 -5.5264 9.03179
2 0.0321573 -11.0575 -8.86655
2 9.4939 -5.75892 8.99252
2 -4.19946 -2.29878 13.5439
2 -4.05785 2.31306 -13.3686
2 13.6375 1.45334 2.10303
2 5.57475 12.748 -2.20443
2 -8.20134 11.1525 2.17573
2 -13.9437 -1.63253 -2.21931
3 -5.39293 -12.6378 2.25644
2 8.17208 -10.9787 -2.08154
1 12.2396 0.809882 4.42173
2 5.46477 11.1621 -4.67937
2 -6.89219 10.187 4.56688
2 -12.4064 -0.768754 -4.60144
2 -5.46174 -11.1917 4.56922
2 6.76945 -10.3137 -4.51856
2 10.9525 -0.0780405 6.58509
2 5.31675 9.4876 -6.65671
2 -5.33519 9.40388 6.7182
2 -10.786 0.0407394 -6.84272
2 -5.52708 -9.41822 6.68307
2 5.46723 -9.51642 -6.70252
2 9.68947 -0.83802 8.92564
2 5.3677 8.08005 -8.8603
2 -4.03754 8.77716 8.86396
2 -9.51744 0.835608 -8.85063
2 -5.51056 -7.81272 8.9693
3 4.03653 -8.68735 -8.97408
2 8.26005 -1.52776 11.0734
2 5.52842 6.3875 -11.1578
2 -2.68004 8.01008 11.1509
2 -7.96149 1.61245 -11.1559
2 -5.72074 -6.42962 11.1816
2 2.64086 -7.87486 -11.0977
2 12.4867 5.55518 -2.16862
2 1.25291 13.4126 2.37986
1 -10.9222 8.07309 -2.25078
2 -12.2832 -5.58093 2.30161
1 -1.37751 -13.5183 -2.12304
2 11.0003 -7.86013 2.25042
2 2.60186 0.0485009 13.4522
2 1.54542 -2.34945 -13.401
2 10.9656 6.26038 -4.52554
1 0.0188837 12.7579 4.64674
2 -10.843 6.16992 -4.5149
2 -10.9553 -6.19796 4.51969
2 0.17947 -12.6131 -4.42325
3 10.9128 -6.35353 4.50425
3 -0.0868912 -0.0386898 13.5592
2 -0.0860639 0.106118 -13.5113
2 9.5009 7.26785 -6.87097
2 -1.36687 11.9203 6.75876
2 -10.9929 4.77405 -6.79083
3 -9.58963 -7.15058 6.70667
1 1.59072 -11.8431 -6.78232
2 10.9423 -4.80068 6.72067
2 -2.6775 0.061885 13.5018
2 -1.41222 2.38837 -13.7205
2 12.3773 3.97756 2.22018
2 2.83051 12.6577 -2.2372
2 -9.65172 8.71953 2.17166
2 -12.3296 -3.95214 -2.27593
2 -2.75276 -12.6534 2.45462
2 9.63973 -8.59735 -2.29857
2 10.9214 3.12401 4.40009
2 2.88519 11.0585 -4.43659
2 -8.28914 7.78953 4.65851
2 -10.9186 -3.15431 -4.48476
2 -2.90806 -11.0116 4.64541
2 8.08107 -7.83079 -4.37737
2 9.4207 2.37259 6.73332
2 2.76202 9.53377 -6.67374
2 -6.79989 7.19631 6.81444
2 -9.6406 -2.26051 -6.86219
2 -2.5893 -9.32991 6.87811
2 6.82529 -7.2939 -6.64212
2 8.151 1.66954 8.96446
2 2.59435 8.04659 -8.85928
2 -5.34859 6.40961 9.00692
2 -8.13737 -1.56937 -9.07522
1 -2.82038 -7.77727 9.03531
2 5.38149 -6.20563 -9.01006
1 7.01299 0.809826 11.1976
2 2.7748 6.299 -11.3922
2 -3.97604 5.55266 11.3704
2 -6.75115 -0.824998 -11.2851
1 -2.75129 -6.24129 11.2358
3 4.05808 -5.46721 -11.1114
2 10.9104 7.83778 -2.23578
1 -1.29702 13.5417 2.15975
2 -12.2609 5.69198 -2.08735
2 -11.005 -7.98893 2.35204
2 1.30339 -13.408 -2.12183
2 12.3062 -5.6291 2.29403
3 1.36052 2.39752 13.429
3 2.83834 -0.0220615 -13.3862
1 9.50367 8.82888 -4.52636
2 -2.70822 12.6095 4.33666
2 -12.385 3.88846 -4.51582
2 -9.5719 -8.59749 4.52866
2 2.77026 -12.6914 -4.31658
2 12.2915 -3.9145 4.55492
2 -1.26269 2.52646 13.5768
2 1.4162 2.21373 -13.43
2 11.168 6.37416 2.17746
2 -0.00888184 12.6737 -2.38583
2 -10.935 6.2845 2.20716
2 -10.9751 -6.29614 -2.22676
2 -0.0449992 -12.8311 2.30321
2 11.0176 -6.43663 -2.26728
2 9.55452 5.58227 4.49761
2 0.00249082 11.1092 -4.54659
2 -9.71348 5.5147 4.58801
1 -9.64197 -5.52359 -4.43103
1 -0.0600804 -11.106 4.40926
2 9.68577 -5.55621 -4.3407
2 8.0598 4.65115 6.76761
2 0.0268025 9.58638 -6.81218
2 -8.16859 4.75534 6.83382
2 -8.22128 -4.74426 -6.75529
1 -0.033016 -9.22833 6.69663
2 8.15236 -4.88289 -6.71569
2 6.74908 4.01095 8.97644
1 0.0390474 7.93926 -8.95698
2 -6.92511 3.89222 9.06793
2 -6.74244 -3.9825 -9.056
2 -0.0700523 -7.76943 9.04596
2 6.98732 -3.82613 -8.88663
2 5.58322 3.13182 11.2691
3 -0.0032456 6.27263 -11.3047
2 -5.51181 3.21362 11.2908
2 -5.34159 -3.30892 -11.2265
2 -0.228995 -6.33043 11.1028
2 5.56706 -3.26874 -11.2117
2 9.62633 10.2679 -2.21055
2 -4.11365 13.5321 2.25194
2 -13.7824 3.3891 -2.13155
1 -9.57899 -10.4483 2.2516
2 4.1871 -13.4452 -2.20853
2 13.7355 -3.17701 2.28211
2 0.0460489 4.71682 13.2719
3 4.11402 2.38979 -13.4785
2 9.76704 8.7254 2.13789
2 -2.79206 12.634 -2.34373
2 -12.4022 4.00099 2.17849
2 -9.53108 -8.78903 -2.09085
2 2.62231 -12.7066 2.29861
2 12.3972 -3.97006 -2.35157
1 8.11981 7.98962 4.43351
2 -2.72381 11.0809 -4.54562
2 -11.0964 3.25938 4.34236
2 -8.32186 -8.00714 -4.41385
2 2.66559 -11.0587 4.43547
2 10.892 -3.22674 -4.53019
1 6.76101 7.28793 6.74541
2 -2.62617 9.53524 -6.68399
2 -9.65691 2.32576 6.74421
2 -6.76323 -7.11585 -6.578
2 2.63326 -9.4645 6.41189
3 9.65521 -2.21766 -6.77176
2 5.74694 6.38837 8.96977
2 -2.68297 7.90282 -8.97851
2 -8.16247 1.33661 8.89108
2 -5.57907 -6.46221 -9.03724
2 2.77126 -7.79384 8.92457
2 8.29144 -1.45162 -9.02695
2 4.14945 5.5424 11.2171
2 -2.65319 6.32889 -11.2686
1 -6.87948 0.779594 11.2759
2 -4.0169 -5.55739 -11.0295
1 2.69252 -6.30244 11.3195
2 6.86397 -0.630807 -11.2783
2 8.12488 11.0695 2.28161
3 -5.52387 12.774 -2.28722
2 -13.8572 1.53876 2.31698
2 -8.24551 -11.0382 -2.16934
2 5.41895 -12.6977 2.30012
2 13.732 -1.55185 -2.15204
2 6.90343 10.2671 4.50185
2 -5.47111 11.14 -4.43004
2 -12.5001 0.810166 4.48163
2 -6.84844 -10.3753 -4.33882
2 5.4712 -11.0469 4.38133
2 12.4511 -0.852707 -4.51261
2 5.46553 9.57705 6.62985
2 -5.72019 9.57435 -6.71482
2 -10.7758 0.00194179 6.91654
2 -5.27344 -9.52907 -6.6479
2 5.57626 -9.49172 6.68015
2 11.103 -0.0313343 -6.75229
2 4.15343 8.78173 9.04028
2 -5.53077 7.89386 -8.87553
2 -9.51648 -0.758125 9.1987
2 -3.99843 -8.69131 -8.8853
2 5.61584 -7.84742 8.93501
2 9.62128 0.854124 -8.86624
2 2.68707 8.0112 11.4333
1 -5.38505 6.18987 -11.2006
2 -8.29858 -1.54533 11.3973
2 -2.58964 -7.99608 -11.064
2 5.52136 -6.32314 11.1129
2 8.25213 1.69893 -11.2328
1 19.3126 -0.103676 0.123383
2 9.69116 16.7076 -0.0656698
3 -9.33491 16.6016 -0.0541282
2 -19.4895 0.124744 -0.201797
2 -9.56101 -16.4565 0.239465
2 9.55212 -16.4813 -0.0373137
2 9.54516 -5.62207 15.6148
2 0.0185101 10.8702 15.6719
2 -9.3578 -5.62525 15.8541
2 -0.144781 -11.0673 -15.6892
2 9.57603 5.60375 -15.5349
2 -9.53423 5.46684 -15.603
2 17.9534 2.14249 -0.146935
2 17.7456 -0.775621 2.3143
2 18.06 0.69155 -2.45819
2 6.97221 16.6654 0.0208318
2 8.2176 15.9876 2.08195
2 9.55711 15.0789 -2.3249
2 -11.1002 14.3941 0.112125
2 -8.16768 15.8958 2.35593
2 -9.57444 15.0353 -2.3433
2 -17.914 -2.44429 0.0348437
2 -17.9106 -0.742449 2.1515
2 -17.8732 0.734034 -2.22647
2 -6.89816 -16.7139 -0.0517769
2 -9.69717 -14.9457 2.15576
2 -8.4514 -15.7799 -1.97947
2 10.9452 -14.2405 0.234597
2 9.7027 -15.0482 2.35829
2 8.31419 -15.9321 -2.23954
2 8.19677 -3.22461 15.6827
2 6.84492 -5.54403 15.7169
2 -1.46271 8.58801 15.7047
2 1.22082 -8.80525 -15.4541
2 -1.43159 -8.71955 -15.5848
2 6.94595 5.6108 -15.5225
2 16.4617 4.71607 0.299903
2 16.3617 -1.58828 4.33797
2 16.5223 1.51004 -4.42535
2 4.25745 16.4635 -0.0628007
2 6.90478 15.2603 4.44713
2 9.38947 13.5067 -4.66887
2 -12.6144 11.9638 0.0131867
2 -6.90075 14.9699 4.4945
2 -9.55457 13.5913 -4.622
1 -16.4844 -4.70266 -0.00374618
1 -16.5816 -1.66431 4.51041
2 -16.4734 1.61829 -4.64798
3 -4.15974 -16.4442 -0.0237635
2 -9.75068 -13.3095 4.27736
2 -7.01948 -15.0269 -4.31178
2 12.3337 -11.9208 0.070806
2 9.77591 -13.438 4.55612
3 6.90025 -14.8731 -4.5019
2 6.8226 -0.832189 15.6599
2 4.00857 -5.47874 15.7057
2 -2.81759 6.42472 15.5853
2 2.61434 -6.41658 -15.5945
2 -2.78536 -6.32032 -15.5604
2 4.14323 5.56438 -15.6202
2 15.1959 7.09682 0.0648166
2 15.0082 -2.40039 6.62745
2 15.057 2.50791 -6.76876
2 1.37282 16.5845 0.137853
2 5.61086 14.3487 6.91861
2 9.52865 11.8022 -6.76633
2 -13.749 9.63549 -0.166473
3 -5.54673 14.1267 6.794
2 -9.55984 11.964 -6.75649
2 -15.1458 -7.2419 -0.124789
2 -15.0389 -2.39648 6.90276
2 -14.8422 2.28355 -6.69339
2 -1.41119 -16.511 -0.0431214
2 -9.52411 -11.7863 6.70578
3 -5.63794 -14.1701 -6.64315
2 13.7342 -9.45503 -0.0522465
2 9.57976 -11.9364 6.75359
2 5.51321 -14.1391 -6.68415
2 5.41685 1.48395 15.6311
2 1.28064 -5.5919 15.7102
2 -4.10521 3.87267 15.752
2 4.04287 -4.01308 -15.615
2 -4.10615 -4.0108 -15.7415
2 1.38951 5.50363 -15.7754
2 13.6877 9.59096 0.0048072
2 13.6537 -3.16026 8.94112
3 13.6843 3.34739 -8.84834
2 -1.37412 16.6132 -0.00174324
2 4.09151 13.4754 9.2032
2 9.35742 10.3726 -8.86767
2 -15.1485 7.28424 0.0499698
2 -4.05953 13.5069 8.92375
2 -9.80296 10.2198 -8.95481
2 -13.6831 -9.67109 -0.0259727
1 -13.6861 -3.25081 9.30056
2 -13.6099 3.16739 -8.95552
2 1.27812 -16.5152 0.00884332
2 -9.47021 -10.2263 8.99514
2 -4.21986 -13.4436 -8.94186
2 15.2553 -7.10611 -0.00512393
2 9.53599 -10.0675 8.84193
1 4.19036 -13.2464 -8.93793
3 4.08142 3.82966 15.796
2 -1.32477 -5.43385 15.6165
2 -5.53932 1.59749 15.6894
2 5.23997 -1.65145 -15.5502
2 -5.44649 -1.52876 -15.6903
1 -1.26685 5.44898 -15.7121
2 12.2388 11.8995 -0.00560298
2 12.3037 -4.00911 11.2521
2 12.2804 4.04233 -11.1453
2 -3.95991 16.612 0.0231063
2 2.60826 12.8455 11.3568
2 9.49458 8.70817 -11.2053
2 -16.5018 4.95003 -0.0600934
2 -2.70839 12.7171 11.2754
2 -9.61325 8.66493 -11.0618
2 -12.4602 -11.9237 0.0031688
2 -12.4277 -4.12961 11.391
2 -12.3614 3.97269 -11.0641
2 4.17214 -16.5271 0.11131
1 -9.52466 -8.55176 11.2002
2 -2.88096 -12.696 -11.1078
2 16.5532 -4.65207 -0.00188823
1 9.59341 -8.8161 11.2999
2 2.8237 -12.7373 -11.2281
1 2.72602 6.35607 15.6709
2 -3.979 -5.6255 15.7067
2 -6.72703 -0.826264 15.7353
2 6.81378 0.80912 -15.6797
2 -6.91065 0.893469 -15.7594
2 -4.18188 5.48389 -15.7155
2 10.864 14.3777 0.0033943
2 10.8679 -4.78369 13.5088
2 11.0694 4.58015 -13.2524
2 -6.76137 16.6346 0.0892788
2 1.34397 12.0609 13.6274
2 9.65179 7.07756 -13.3089
2 -17.9436 2.32919 -0.0992587
1 -1.41037 11.8294 13.5643
2 -9.45619 6.94203 -13.252
2 -11.2648 -14.3628 -0.0853615
2 -11.1143 -4.7765 13.68
2 -10.9345 4.75471 -13.2626
2 6.89847 -16.5234 0.0771914
2 -9.50504 -7.20409 13.4798
2 -1.29813 -11.8576 -13.4354
2 17.7874 -2.28376 -0.10059
2 9.5658 -7.24135 13.4564
2 1.40367 -11.7586 -13.3147
2 1.30536 8.56146 15.542
3 -6.75829 -5.72826 15.7168
2 -8.24019 -3.19676 15.8612
2 8.28867 3.16591 -15.579
2 -8.19111 3.15593 -15.7618
2 -6.82852 5.33944 -15.6768
2 16.5625 3.05935 -2.21506
2 5.64373 15.9982 2.12439