3997
 Atoms. Timestep: 6000
2 0.0766542 0.0214886 -0.0403226
2 2.70571 0.174033 0.0197059
1 1.44207 2.43942 0.0316024
2 -1.27451 2.4153 -0.062991
2 -2.76423 0.0659512 -0.00994643
2 -1.30763 -2.31927 0.00223391
2 1.21417 -2.17987 0.0081881
2 1.45773 -0.621495 2.31708
3 0.034954 1.54193 2.21892
2 -1.36293 -0.783464 2.19401
2 -0.185411 -1.44693 -2.24957
2 1.3175 0.773322 -2.15569
2 -1.33539 0.908302 -2.28373
2 5.47778 -0.0081558 0.131043
2 2.67411 4.76256 0.0754186
1 -2.73063 4.88931 -0.125859
2 -5.53128 0.0472119 0.0188064
2 -2.76504 -4.8746 -0.00435907
2 2.76298 -4.59408 -0.00482336
2 2.82172 -1.53585 4.41245
2 -0.0551381 3.05787 4.50305
2 -2.80477 -1.6234 4.69258
2 -0.0663137 -3.1992 -4.51627
2 2.69193 1.76521 -4.4671
2 -2.73513 1.7249 -4.46216
2 4.131 2.42461 -0.0271363
2 4.16891 -0.624466 2.26365
2 4.05146 0.799591 -2.27248
2 0.0264233 4.75106 -0.139786
2 1.36032 3.9754 2.18449
2 2.63387 3.35962 -2.27696
2 -4.16527 2.35979 0.0635346
2 -1.31857 3.88866 2.21143
2 -2.7482 3.29458 -2.27219
2 -4.14388 -2.47199 -0.109325
1 -3.90912 -0.74445 2.16324
2 -4.14257 0.968607 -2.27932
2 -0.00549743 -4.66414 0.0507497
2 -2.87752 -3.0794 2.18849
2 -1.40632 -3.90927 -2.15224
2 4.0331 -2.3748 0.0010671
2 2.73321 -3.13706 2.23561
2 1.3243 -3.82374 -2.13059
1 1.4196 0.774785 4.46656
2 0.00150855 -1.66723 4.4839
2 -1.26781 0.715727 4.45885
2 1.49438 -0.627596 -4.46336
2 -1.31624 -0.646431 -4.59352
3 0.00143776 1.65645 -4.4985
3 2.84115 1.68897 2.14516
2 -0.0931962 3.25737 -2.34799
2 -2.55536 1.68028 2.17326
2 -2.76291 -1.47227 -2.28943
2 0.0619091 -3.09381 2.40713
2 2.79671 -1.55397 -2.22725
2 8.30824 0.0188951 -0.0497108
2 4.30786 7.23214 0.0260069
2 -4.27716 7.1499 0.0746631
2 -8.20063 0.0802769 0.0710629
2 -4.09303 -7.20075 0.0377816
2 4.15519 -7.23895 0.0957985
2 4.07977 -2.46033 6.65031
3 -0.0741749 4.80615 6.7576
2 -4.19487 -2.41129 6.91664
3 0.0364023 -4.84127 -6.60829
2 3.98923 2.43008 -6.66327
2 -4.01971 2.30793 -6.77504
2 6.81598 2.42782 0.101076
2 6.89481 -0.645476 2.21264
2 6.84031 0.712017 -2.1655
2 1.26074 7.17413 0.12509
2 2.68475 6.53978 2.38222
2 4.16976 5.68773 -2.18124
2 -5.5323 4.73655 0.0150955
2 -2.71191 6.34284 2.34595
1 -4.32101 5.7423 -2.2111
2 -6.95882 -2.47273 0.0763092
2 -6.7418 -0.674196 2.28861
2 -6.77674 0.648578 -2.31783
2 -1.2687 -7.15852 -0.0191656
2 -4.07657 -5.63229 2.28142
3 -2.72444 -6.41948 -2.30763
1 5.39632 -4.70043 0.0120724
2 4.15506 -5.55343 2.17167
2 2.77094 -6.33735 -2.20753
2 2.64533 -0.0434891 6.57756
2 1.18928 -2.52998 6.65128
2 -1.34609 2.26339 6.58858
2 1.44866 -2.3245 -6.70434
2 -1.37238 -2.36743 -6.79271
2 1.26437 2.4748 -6.68792
2 5.48018 4.80535 0.106909
2 5.62507 -1.44749 4.42353
2 5.51246 1.74799 -4.4586
2 -1.49467 7.25941 -0.11148
2 1.37678 5.50672 4.48152
2 4.1311 4.03338 -4.45177
2 -6.8652 2.41652 0.0640045
2 -1.39312 5.4885 4.48789
2 -4.06005 3.93598 -4.546
2 -5.52739 -4.87668 0.0222186
2 -5.42965 -1.65303 4.40005
2 -5.64027 1.65634 -4.67836
2 1.3285 -7.06267 0.0300441
2 -4.21835 -3.94759 4.50513
2 -1.40312 -5.46969 -4.31815
2 6.85753 -2.37273 0.0268049
2 4.05825 -3.97184 4.41046
2 1.43686 -5.46739 -4.50559
2 1.35503 2.46454 6.71993
2 -1.43645 -2.44169 6.81573
2 -2.78684 -0.0493189 6.83799
2 2.68953 0.127543 -6.75625
2 -2.69315 -0.0511395 -6.7121
2 -1.27952 2.43643 -6.61031
2 5.44497 3.27694 -2.11437
2 0.0864226 6.35944 2.21384
2 -5.61302 3.34117 -2.30041
2 -5.50447 -3.02707 2.18799
2 0.136894 -6.39235 -2.142
2 5.46584 -3.23611 2.27685
2 -0.0421865 -0.154148 6.73916
2 -0.031676 0.0667692 -6.74409
2 5.49278 1.74855 2.36451
2 1.242 5.67308 -2.2211
2 -4.0831 4.05503 2.05246
2 -5.46016 -1.55587 -2.31174
2 -1.34211 -5.38653 2.37735
2 4.09988 -4.00686 -2.16089
2 4.06544 0.8843 4.48786
2 1.22423 4.15948 -4.43188
2 -2.7582 3.13305 4.43793
2 -4.04734 -0.80884 -4.48275
2 -1.36831 -3.97925 4.61762
2 2.72339 -3.13914 -4.39756
2 4.12673 4.06365 2.20211
2 -1.35662 5.62598 -2.26526
2 -5.37769 1.59331 2.23814
2 -4.0679 -3.93682 -2.27183
2 1.49303 -5.57462 2.27609
1 5.50513 -1.47614 -2.16039
2 2.74927 3.19579 4.3543
3 -1.33541 4.07449 -4.36043
2 -4.01353 0.699126 4.425
3 -2.72443 -3.07696 -4.49179
2 1.34709 -4.00442 4.62795
2 4.24436 -0.72491 -4.50306
2 11.004 0.0106723 -0.0656249
2 5.74366 9.50006 0.0355969
2 -5.47745 9.60673 0.0461699
2 -10.9377 0.0132952 -0.0122361
3 -5.47335 -9.51582 -0.0194423
2 5.47927 -9.65552 0.0651691
2 5.52169 -3.17162 8.96089
2 -0.0547341 6.49448 8.95218
1 -5.45021 -3.03089 8.97534
2 -0.118423 -6.20909 -8.84691
2 5.50636 3.21933 -8.96038
2 -5.5321 3.02496 -8.94174
2 9.59983 2.30427 -0.0722774
2 9.64747 -0.846518 2.29831
2 9.60162 0.822334 -2.26469
2 2.71489 9.47383 0.0435292
1 4.09706 8.71983 2.20902
3 5.65029 7.95712 -2.12233
2 -6.856 7.02835 0.0227053
2 -4.09749 8.83793 2.10154
2 -5.56622 7.92538 -2.1529
2 -9.63875 -2.48179 -0.111643
2 -9.4561 -0.788225 2.1751
2 -9.58983 0.71996 -2.30148
2 -2.65649 -9.46694 0.0739359
2 -5.33169 -7.9316 2.29512
2 -4.0185 -8.7354 -2.15111
2 6.76663 -7.06755 0.0266658
2 5.59355 -8.0779 2.26009
1 4.16764 -8.76824 -2.19539
2 4.10954 -0.707269 8.8684
2 2.88163 -3.10467 9.04722
2 -1.45698 3.84071 8.89243
2 1.25154 -3.77852 -8.97534
2 -1.44975 -4.04432 -8.91444
2 2.66965 3.15871 -8.9421
2 8.22803 4.74782 0.137381
3 8.26298 -1.5085 4.40421
2 8.19431 1.61818 -4.46537
2 0.157696 9.57248 -0.0467165
2 2.80403 8.06758 4.42099
2 5.54611 6.39855 -4.28111
2 -8.18882 4.92856 -0.0352434
2 -2.68846 7.96343 4.45503
1 -5.5816 6.29552 -4.60133
2 -8.19695 -4.87492 -0.0565704
2 -8.23003 -1.47643 4.53869
2 -8.18094 1.57031 -4.54626
2 -0.0342548 -9.45075 -0.127217
2 -5.5471 -6.35388 4.48418
2 -2.66608 -7.97709 -4.42744
2 8.21003 -4.7483 0.0387832
2 5.47197 -6.54585 4.37564
2 2.90511 -7.87783 -4.4217
2 2.66861 1.56972 8.92022
2 0.00960545 -3.07814 9.22795
2 -2.7139 1.55275 8.84899
2 2.78995 -1.68998 -8.85668
2 -2.64636 -1.74688 -8.96148
2 0.0531224 3.13438 -9.0292
2 6.92759 7.10719 0.2007
2 6.99181 -2.27178 6.77756
2 6.96421 2.33668 -6.70287
2 -2.76003 9.57362 -0.0274169
2 1.40957 7.01119 6.62762
2 5.52866 4.8697 -6.72373
2 -9.54627 2.41235 0.156207
2 -1.37224 7.1866 6.67303
1 -5.59007 4.68626 -6.73356
3 -6.89504 -7.16898 -0.0721259
2 -6.78054 -2.35829 6.6786
2 -6.94346 2.38695 -6.68845
2 2.76021 -9.41377 0.0656092
2 -5.45334 -4.8353 6.88191
2 -1.40947 -6.99741 -6.57846
2 9.57528 -2.26322 0.0338774
2 5.49981 -4.77423 6.77706
2 1.34263 -7.1299 -6.69211
2 1.34714 4.10861 8.94874
2 -2.82006 -3.16244 8.95784
3 -3.92482 -0.827925 9.03101
2 4.09732 0.789626 -8.94463
2 -4.22364 0.76819 -8.92165
2 -2.77228 3.12391 -8.82578
2 8.11385 3.1463 -2.1507
3 1.33753 8.60903 2.10786
2 -6.93323 5.55157 -2.26787
2 -8.17428 -3.22711 2.2366
2 -1.4155 -8.68315 -2.27758
2 6.88673 -5.60752 2.39109
2 1.50016 -0.875689 8.88164
2 -0.0608718 -1.54737 -8.9681
2 6.83583 4.06162 -4.39479
2 0.00167205 7.87365 4.32681
2 -6.87017 4.02144 -4.38687
2 -6.87594 -3.88933 4.342
2 0.0494968 -7.98577 -4.39568
2 6.93801 -3.77318 4.57414
2 -1.35237 -0.927265 9.05044
2 -1.50333 0.890868 -8.88236
2 8.23221 1.57788 2.24071
2 2.72745 7.98541 -2.21357
2 -5.68198 6.37215 2.29537
2 -8.24656 -1.58449 -2.29785
2 -2.68134 -7.76636 2.29758
2 5.45092 -6.30743 -2.18511
2 6.77288 0.942546 4.57285
2 2.77769 6.35945 -4.36194
2 -4.14497 5.51537 4.46686
2 -6.85487 -0.792 -4.49908
2 -2.84977 -6.36234 4.54266
2 4.1311 -5.59644 -4.40818
2 5.29247 0.0119557 6.68023
2 2.78313 4.78148 -6.63395
2 -2.66757 4.78877 6.76787
2 -5.52061 -0.134522 -6.622
2 -2.68407 -4.72094 6.74518
2 2.70143 -4.74945 -6.66229
2 6.90083 5.65259 -2.13141
2 -1.38067 8.75653 2.16587
2 -8.26384 3.0971 -2.27724
2 -6.88281 -5.49757 2.26651
2 1.40256 -8.72623 -2.19329
2 8.15939 -3.11128 2.2667
2 -0.00664053 1.58356 8.9255
2 1.40118 0.764808 -9.0308
2 6.92249 4.02497 2.42211
2 -0.0193596 8.04313 -2.26357
2 -6.87173 4.07981 2.13325
2 -6.76141 -4.04121 -2.21125
2 0.0701551 -8.01972 2.33179
2 6.71686 -3.86507 -2.15992
3 5.47183 3.23174 4.45088
2 -0.0623457 6.58803 -4.54295
2 -5.49887 3.34442 4.48669
2 -5.38449 -3.28879 -4.44801
2 0.11887 -6.4049 4.56313
2 5.58797 -3.16859 -4.42219
2 4.19295 2.38552 6.61491
2 -0.0104074 4.94399 -6.64719
2 -4.04986 2.38395 6.76207
2 -4.10742 -2.48732 -6.67874
2 -0.166164 -4.83826 6.77406
3 4.306 -2.26687 -6.56917
2 5.47767 6.37388 2.27703
2 -2.78081 8.04877 -2.30057
2 -8.27308 1.63214 2.35826
2 -5.44236 -6.39447 -2.22582
2 2.78478 -7.91677 2.30292
1 8.31216 -1.63591 -2.17578
2 4.13327 5.46092 4.58466
2 -2.67881 6.32735 -4.42261
2 -6.75059 0.853969 4.5641
2 -3.98436 -5.51955 -4.40274
2 2.75078 -6.36394 4.4917
2 6.80737 -0.814005 -4.46934
2 2.85303 4.6484 6.67382
2 -2.67169 4.80667 -6.67276
2 -5.52812 0.0124956 6.70279
2 -2.72105 -4.81371 -6.66037
1 2.8247 -4.79668 6.67176
2 5.40029 -0.0517263 -6.75839
2 13.7196 -0.0466944 -0.118276
2 6.86845 11.8452 -0.0653819
2 -6.78114 11.8334 -0.124014
2 -13.7747 -0.0381284 -0.0921759
2 -6.83631 -11.8886 0.0596846
2 6.90566 -11.8818 -0.00165316
2 6.81846 -4.03141 11.3056
3 -0.0487311 7.91379 11.1347
2 -6.88395 -3.89581 11.1528
2 0.234259 -7.99673 -11.3423
3 6.73994 4.09242 -11.1616
2 -6.87709 3.97774 -11.1117
2 12.3569 2.33623 0.0696992
2 12.4507 -0.701809 2.24601
3 12.2025 0.970712 -2.15943
1 4.27578 11.9692 0.039417
2 5.44489 11.1213 2.19847
2 7.01509 10.1881 -2.21975
2 -8.17871 9.62006 0.0338658
2 -5.46871 11.2439 2.22756
2 -6.76275 10.2952 -2.32633
2 -12.4991 -2.39057 0.0166563
2 -12.3314 -0.719606 2.17161
2 -12.3606 0.78835 -2.35345
2 -4.02167 -11.6752 -0.0851956
2 -6.63876 -10.3698 2.207
2 -5.48669 -11.1209 -2.17607
1 8.1485 -9.45591 -0.0123823
2 6.86421 -10.3611 2.26112
2 5.56501 -11.1679 -2.20544
2 5.44806 -1.47216 11.0889
2 4.03108 -3.79236 11.0493
2 -1.37928 5.49509 11.3138
2 1.54651 -5.49107 -11.0167
1 -1.19671 -5.5111 -11.2046
2 4.09876 3.89936 -11.1711
1 10.9873 4.74075 0.203732
2 10.99 -1.69443 4.46629
2 10.9192 1.56158 -4.4626
2 1.38179 11.8696 0.0286005
1 4.1666 10.2907 4.54267
2 6.92739 8.60978 -4.4016
2 -9.59454 7.18937 -0.00303109
2 -4.11487 10.4629 4.38313
3 -6.91826 8.78787 -4.33637
2 -10.9657 -4.88988 -0.062273
2 -10.8715 -1.39599 4.47783
2 -10.9581 1.64112 -4.4826
2 -1.30357 -11.9198 -0.0977654
3 -6.87318 -8.74192 4.39188
2 -4.07631 -10.4103 -4.37131
2 9.56231 -7.1994 -0.0399677
2 6.94499 -8.7581 4.58519
3 4.13342 -10.2655 -4.41758
2 4.11794 0.743576 11.2876
2 1.349 -4.11594 11.2639
2 -2.64193 3.11904 11.2698
2 2.63509 -2.98351 -11.0712
3 -2.67983 -3.09087 -11.2268
2 1.23512 3.9179 -11.2128
2 9.77809 6.9252 0.0174162
3 9.6549 -2.46989 6.75217
2 9.60341 2.39687 -6.69364
2 -1.32224 11.8947 -0.0355068
2 2.53176 9.43322 6.83873
2 7.02848 7.03996 -6.78525
2 -10.9678 4.90075 -0.0169904
2 -2.82702 9.57407 6.76937
3 -6.87751 7.11703 -6.75689
2 -9.62676 -7.16205 -0.0869463
2 -9.52252 -2.37827 6.66819
3 -9.57629 2.43761 -6.58109
2 1.38996 -11.9483 0.0260553
2 -6.86897 -7.1791 6.76751
2 -2.73765 -9.48097 -6.59456
2 10.9647 -4.79035 -0.00213356
2 7.00956 -7.13452 6.70673
2 2.80477 -9.37249 -6.6058
2 2.57586 3.1378 11.1969
2 -1.44755 -4.01083 11.2915
1 -3.95369 0.704572 11.2189
2 4.14388 -0.722826 -11.1363
2 -3.97208 -0.793259 -11.2312
2 -1.48113 3.81733 -11.2006
2 8.39617 9.57774 -0.00246932
2 8.27064 -3.21062 8.96194
2 8.22774 3.22328 -8.97878
2 -4.06605 11.9453 -0.0397122
2 1.37328 8.58911 9.04441
2 6.8862 5.63519 -9.07159
2 -12.203 2.33881 -0.142131
2 -1.26054 8.80602 9.04989
2 -6.86533 5.60983 -8.89745
2 -8.00745 -9.51487 0.0259315
2 -8.26937 -3.20793 8.88756
2 -8.33106 3.28999 -8.84752
2 4.11254 -11.9736 0.0273205
2 -6.85025 -5.65755 8.95561
2 -1.31108 -8.72159 -9.00863
2 12.3342 -2.52921 0.00633628
2 6.89637 -5.5357 9.01754
2 1.39121 -8.61178 -8.85983
2 1.33129 5.62643 11.3364
2 -4.21373 -3.84902 11.19
2 -5.42499 -1.58998 11.2628
2 5.5011 1.74719 -11.1982
3 -5.30557 1.53717 -11.0501
2 -4.24668 3.94958 -11.0125
2 11.018 3.24952 -2.25946
2 2.70634 11.0134 2.34478
2 -8.19882 7.95033 -2.13076
2 -10.793 -3.21171 2.23868
2 -2.76741 -11.0325 -2.28481
2 8.25649 -7.94075 2.25252
2 2.73492 -1.56462 11.3115
2 -0.0726348 -3.21107 -11.2234
2 9.53286 4.04629 -4.37785
2 1.45115 10.276 4.39532
2 -8.25103 6.36175 -4.48345
2 -9.65334 -3.81924 4.52219
3 -1.48758 -10.2739 -4.50251
2 8.28249 -6.41329 4.53016
2 -0.0543658 -1.59842 11.3653
3 -1.33506 -0.734954 -11.1666
2 8.16941 4.73075 -6.70245
2 -0.149867 9.49815 6.7481
2 -8.21784 4.81072 -6.66664
2 -8.34846 -4.85414 6.77247
2 -0.203086 -9.43166 -6.56467
2 8.28416 -4.6524 6.67961
2 -2.6898 -1.72491 11.2876
2 -2.62139 1.55016 -11.2244
2 10.9622 1.5521 2.31497
2 4.19836 10.299 -2.13194
2 -6.83482 8.83777 2.22819
2 -11.0131 -1.70338 -2.18999
2 -4.07862 -10.1447 2.25691
2 6.97178 -8.72071 -2.19354
2 9.52386 0.758857 4.50076
2 4.0991 8.60477 -4.26001
2 -5.42001 8.10686 4.47945
2 -9.63607 -0.711175 -4.49011
2 -4.18264 -8.96137 4.59475
2 5.53202 -7.8738 -4.3123
2 8.14154 -0.0277742 6.64532
2 4.17881 7.16768 -6.6914
2 -4.2778 7.28165 6.65288
3 -8.17427 0.0780286 -6.77832
2 -4.13712 -7.28084 6.89345
2 4.24252 -7.15066 -6.6912
2 6.80287 -0.713108 9.01813
2 4.02684 5.57451 -8.80514
2 -2.72224 6.39349 8.97702
2 -7.00426 0.818494 -8.94876
2 -3.94874 -5.5244 9.0201
2 2.8033 -6.3063 -8.92566
2 9.50315 5.5226 -2.17182
2 0.00835588 11.0084 2.19139
3 -9.62099 5.47797 -2.20072
2 -9.56998 -5.5466 2.41865
2 0.0168919 -11.0473 -2.27504
2 9.66367 -5.58041 2.16593
2 1.28153 0.639025 11.2913
2 1.44578 -0.821963 -11.2172
2 8.32954 6.47126 -4.49992
2 -1.41432 10.3116 4.52125
2 -9.67114 3.88105 -4.40021
2 -8.25519 -6.34741 4.58576
2 1.3547 -10.2892 -4.44139
2 9.55807 -3.98852 4.49745
2 -1.35482 0.681438 11.2748
1 -0.0389965 1.5512 -11.0895
2 9.75522 3.89348 2.28949
2 1.6001 10.443 -2.20779
2 -8.36605 6.38864 2.29252
2 -9.48585 -4.019 -2.2326
2 -1.36373 -10.3054 2.33456
2 8.19142 -6.27699 -2.17383
2 8.18523 3.16089 4.54107
3 1.47837 8.84446 -4.36305
2 -6.91318 5.61655 4.5221
1 -8.14941 -3.14752 -4.39577
2 -1.49588 -8.77315 4.65405
2 6.97793 -5.57573 -4.42882
3 6.80294 2.48489 6.71795
2 1.49645 7.19953 -6.58788
2 -5.52816 4.87316 6.78246
2 -6.74486 -2.36239 -6.71075
2 -1.49311 -7.03363 6.78969
2 5.49273 -4.62713 -6.6322
2 5.45129 1.67836 8.87918
2 1.294 5.60987 -8.93644
2 -4.10579 4.07855 8.93045
2 -5.31729 -1.71962 -9.05713
3 -1.33805 -5.56347 9.13484
2 4.01378 -3.89447 -8.87547
2 8.37516 7.84944 -2.15093
2 -2.72515 11.1268 2.15915
2 -10.9527 3.19378 -2.19566
2 -8.14801 -8.03314 2.16233
2 2.8077 -11.2296 -2.07289
2 10.9968 -3.19541 2.16129
1 0.00737598 3.21226 11.2251
2 2.76499 1.63355 -11.3286
2 8.39536 6.30072 2.29824
1 -1.29011 10.2223 -2.23895
2 -9.54359 4.00311 2.29816
2 -8.16695 -6.47125 -2.27014
2 1.356 -10.3972 2.22433
2 9.55883 -3.99188 -2.11425
2 6.91157 5.57879 4.52888
1 -1.38042 8.84155 -4.53771
2 -8.27246 3.29154 4.51822
2 -6.71677 -5.63601 -4.442
2 1.46116 -8.70142 4.483
3 8.25042 -3.12671 -4.43796
2 5.55841 4.72533 6.72715
2 -1.46803 7.30473 -6.81443
2 -6.75253 2.33713 6.82945
2 -5.47663 -4.78653 -6.74606
2 1.41006 -7.2397 6.80932
2 6.90919 -2.31052 -6.59675
2 4.08177 4.00392 8.82029
2 -1.45 5.55968 -9.08921
2 -5.46863 1.40461 9.00441
3 -4.05729 -4.039 -9.0915
2 1.20156 -5.68678 8.89392
2 5.45169 -1.50746 -8.82849
2 6.9288 8.69976 2.24299
2 -4.12241 10.2571 -2.29417
2 -11.0404 1.5664 2.47879
2 -6.64908 -8.86653 -2.19454
2 4.14225 -10.3765 2.26698
2 11.0829 -1.46113 -2.28118
2 5.53373 8.05364 4.55239
2 -4.18026 8.73865 -4.49091
2 -9.45126 0.868688 4.58492
1 -5.34419 -7.92609 -4.54471
3 4.22365 -8.90476 4.51941
2 9.49805 -0.827113 -4.51078
2 4.04984 7.09074 6.60722
2 -4.13685 7.13505 -6.69141
3 -8.06064 0.0590461 6.69188
1 -4.01938 -6.98851 -6.73934
2 4.22258 -7.22001 6.70696
2 8.20675 -0.0878469 -6.61741
2 2.64733 6.27269 8.96414
2 -4.14321 5.59436 -8.85759
2 -6.97334 -0.700012 9.02169
2 -2.66985 -6.33182 -8.9435
2 4.03383 -5.63983 8.94725
2 6.89949 0.908444 -8.96868
2 16.4589 -0.0018513 0.0871829
1 8.15021 14.3647 0.0578051
2 -8.28442 14.2669 -0.143133
2 -16.4314 -0.0379881 0.0150465
2 -8.15677 -14.2649 0.0090829
2 8.2988 -14.2516 -0.0488925
2 8.16339 -4.88532 13.4545
2 0.152766 9.29876 13.3508
2 -8.23308 -4.80052 13.4591
2 0.0779008 -9.55728 -13.5069
2 8.25384 4.763 -13.4366
2 -8.28391 4.78426 -13.3647
2 15.1017 2.48511 0.0619855
2 15.1942 -0.924395 2.24498
2 15.0509 0.729998 -2.26998
2 5.5347 14.3665 -0.0227383
2 6.85199 13.5363 2.20354
2 8.19527 12.7601 -2.26878
2 -9.56682 11.8922 -0.0491807
2 -7.03 13.5192 2.1585
2 -8.15208 12.6548 -2.30248
3 -15.1594 -2.41742 0.0315037
2 -15.0111 -0.824845 2.29671
2 -15.131 0.821566 -2.32026
2 -5.3969 -14.2243 -0.0326982
2 -8.17756 -12.7566 2.13727
2 -6.74004 -13.4983 -2.35972
2 9.70903 -11.8219 -0.0924086
2 8.16753 -12.7023 2.32173
2 6.88204 -13.5964 -2.29796
2 6.72808 -2.50632 13.3323
2 5.33355 -4.75493 13.3478
2 -1.27189 7.19652 13.4828
2 1.47212 -6.95993 -13.3999
2 -1.20585 -7.10858 -13.4933
2 5.42203 4.82852 -13.3471
2 13.6846 4.82638 0.0306993
2 13.9094 -1.64028 4.47034
2 13.6286 1.53836 -4.35024
2 2.80389 14.3055 -0.0383856
2 5.51515 12.701 4.48545
2 8.26237 10.9518 -4.4527
2 -10.9425 9.42074 -0.0110355
1 -5.65798 12.7365 4.45379
2 -8.23749 11.107 -4.45735
2 -13.5988 -4.83262 0.111801
2 -13.5941 -1.52773 4.52915
2 -13.631 1.49552 -4.52924
2 -2.65476 -14.2583 -0.00215888
2 -8.16596 -11.0843 4.38432
1 -5.51355 -12.7784 -4.52353
2 10.8374 -9.4852 0.048959
2 8.14949 -11.1314 4.4173
2 5.43654 -12.7051 -4.44107
2 5.3879 -0.246726 13.5019
2 2.569 -4.81703 13.3781
2 -2.60003 4.73727 13.4787
2 2.74285 -4.58525 -13.4038
1 -2.6184 -4.76449 -13.3798
2 2.5521 4.6096 -13.5323
2 12.3638 7.24523 0.102358
2 12.4843 -2.4614 6.67265
2 12.4051 2.50946 -6.74511
2 0.035821 14.1671 -0.00291259
2 4.18913 11.7792 6.78162
2 8.28111 9.49684 -6.77634
3 -12.2636 7.18618 0.0214426
2 -4.16708 12.0305 6.76872
2 -8.2064 9.48293 -6.72958
2 -12.4652 -7.286 -0.0469956
2 -12.3495 -2.33386 6.69413
3 -12.417 2.33994 -6.70781
3 -0.0876949 -14.2513 0.0449536
2 -8.21506 -9.43365 6.88045
2 -4.19989 -12.0686 -6.76082
2 12.3648 -7.25596 0.000456371
3 8.236 -9.44429 6.62005
2 4.02664 -11.7609 -6.58253
2 3.99374 2.50495 13.5258
2 -0.0525076 -4.79474 13.4692
2 -4.10606 2.38383 13.3774
2 3.98445 -2.28518 -13.3574
3 -4.19527 -2.35641 -13.4253
2 -0.0761942 4.59069 -13.5541
3 11.0072 9.52858 -0.0502377
2 11.0687 -3.03893 8.87429
2 11.0814 3.12624 -8.90551
2 -2.60559 14.2701 0.15372
2 2.63292 10.9381 9.0262
2 8.17095 8.05668 -8.9866
2 -13.6347 4.80549 -0.0505729
2 -2.76879 11.1704 8.92066
2 -8.29006 7.97488 -8.89799
2 -11.0009 -9.56506 0.0396846
2 -11.0206 -3.06506 8.95774
2 -11.0328 3.2015 -8.78651
2 2.73071 -14.4051 0.19594
2 -8.39196 -7.97686 9.01812
1 -2.57682 -11.0577 -8.9866
2 13.6787 -4.85085 0.0281365
1 8.36509 -7.88997 8.82777
2 2.85156 -10.9179 -8.91655
1 2.63428 4.67808 13.488
2 -2.81793 -4.78391 13.4073
2 -5.51114 -0.0909822 13.4605
1 5.4198 -0.0520747 -13.3924
2 -5.3954 0.107674 -13.3469
2 -2.7647 4.72172 -13.4958
2 9.7922 11.9777 -0.0224916
2 9.51507 -4.12953 11.2399
2 9.5844 4.04791 -11.2467
2 -5.53399 14.305 -0.00591656
2 1.39393 10.3172 11.1523
2 8.20772 6.3233 -11.1363
2 -14.9627 2.44103 -0.0699302
2 -1.13248 10.299 11.0932
2 -8.35152 6.29672 -11.0494
1 -9.51094 -11.9927 -0.149993
2 -9.67675 -4.0326 11.1026
2 -9.73772 3.92407 -11.0447
2 5.47754 -14.2562 -0.00350812
1 -8.37381 -6.22897 11.2934
1 -1.21 -10.2563 -11.2264
2 15.1788 -2.45163 -0.184388
2 8.19911 -6.37171 11.2014
3 1.45098 -10.2693 -11.1497
3 1.51716 6.96191 13.4854
2 -5.4748 -4.87654 13.4936
2 -6.85106 -2.46843 13.4697
2 6.76576 2.40212 -13.4389
2 -6.73804 2.2336 -13.3263
2 -5.50994 4.7424 -13.3143
2 13.7132 3.11749 -2.06228
2 4.20301 13.4635 2.19542
2 -9.56068 10.3782 -2.18647
2 -13.5013 -3.22587 2.27183
2 -4.18901 -13.4945 -2.24648
2 9.64347 -10.2112 2.18678
3 3.91472 -2.56699 13.498
2 -0.0617458 -4.64449 -13.4367
2 12.2981 4.04267 -4.50344
1 2.79185 12.6875 4.49386
2 -9.60818 8.68557 -4.41292
2 -12.3228 -3.97077 4.4467
1 -2.78403 -12.6207 -4.36363
2 9.60294 -8.78057 4.42932
2 1.33283 -2.36562 13.3162
2 -1.48797 -2.28459 -13.4614
2 10.8515 4.70242 -6.72896
2 1.40071 11.6915 6.80472
2 -9.68115 7.1632 -6.62392
1 -11.1721 -4.77566 6.66681
2 -1.35487 -11.8366 -6.70526
3 9.68443 -6.99929 6.69811
2 -1.42188 -2.28735 13.3901
3 -2.72649 0.0578302 -13.3706
2 9.72052 5.73773 -8.92971
3 -0.0344859 11.0874 8.96325
2 -9.64401 5.62052 -8.87669
2 -9.64393 -5.65057 8.87206
2 0.179212 -10.9598 -8.93633
2 9.61315 -5.52731 8.92272
2 -4.16064 -2.47887 13.637
2 -3.98378 2.33531 -13.3082
2 13.7339 1.52859 2.23396
2 5.58972 12.769 -2.30965
2 -8.16439 11.1506 2.18037
2 -13.7816 -1.50081 -2.13454
3 -5.35774 -12.705 2.22565
2 8.25471 -11.1085 -2.21147
1 12.2739 0.755881 4.49698
2 5.56641 11.065 -4.37934
2 -6.79883 10.3494 4.54573
2 -12.3108 -0.872263 -4.41473
2 -5.51814 -11.1354 4.42886
2 6.8569 -10.2503 -4.38361
2 10.8513 -0.112528 6.63874
2 5.60065 9.44217 -6.58233
2 -5.4914 9.62922 6.86262
2 -10.9719 0.184424 -6.76952
2 -5.62523 -9.54282 6.69304
2 5.43145 -9.4499 -6.63518
2 9.62234 -0.816027 8.78919
2 5.43067 8.10773 -9.04046
2 -4.11724 8.77686 8.99201
2 -9.63549 1.07366 -8.82005
2 -5.6459 -8.06802 9.04877
3 4.14041 -8.54119 -8.87666
2 8.27582 -1.61306 11.2372
2 5.2508 6.41985 -11.1825
2 -2.57508 7.91465 11.178
2 -8.14671 1.63788 -11.1434
2 -5.18814 -6.38177 11.2435
2 2.88768 -7.7604 -11.2101
2 12.2588 5.65667 -2.19694
2 1.44615 13.4854 2.22293
1 -10.8951 7.92067 -2.3551
2 -12.1814 -5.70183 2.2129
1 -1.34079 -13.5529 -2.19084
2 11.0134 -7.95586 2.25903
2 2.68847 0.00779075 13.4531
2 1.42529 -2.24411 -13.3575
2 11.027 6.49212 -4.431
1 0.14445 12.6165 4.45947
2 -10.9548 6.33945 -4.49817
2 -11.0173 -6.3855 4.59381
2 -0.144568 -12.7106 -4.44325
3 10.9361 -6.30487 4.42553
3 -0.0116489 0.0267435 13.5238
2 -0.0137498 -0.0246309 -13.458
2 9.71399 7.1913 -6.7613
2 -1.30048 11.9231 6.63238
2 -10.928 4.67096 -6.51075
3 -9.7052 -7.27591 6.80851
1 1.45246 -11.7944 -6.61512
2 11.0076 -4.81701 6.67205
2 -2.75418 0.0154372 13.6113
2 -1.20753 2.43935 -13.4812
2 12.4705 3.9344 2.23698
2 2.83874 12.737 -2.14195
2 -9.53513 8.89088 2.1682
2 -12.3715 -4.01321 -2.17762
2 -2.86834 -12.6202 2.31951
2 9.77532 -8.81027 -2.19013
2 10.9479 3.0348 4.4958
2 2.95509 11.1442 -4.40867
2 -8.22228 8.00857 4.43593
2 -10.9367 -3.22858 -4.3277
2 -2.81751 -11.1796 4.4886
2 8.30779 -8.05659 -4.3981
2 9.52414 2.21466 6.72358
2 2.7159 9.53621 -6.62686
2 -6.95897 7.387 6.80418
2 -9.51088 -2.32339 -6.71642
2 -2.87248 -9.5983 6.89921
2 6.99982 -7.09828 -6.55495
2 8.17435 1.4906 8.96867
2 2.69557 8.02242 -8.78693
2 -5.5537 6.52341 8.94539
2 -8.05694 -1.54947 -8.9916
1 -2.69987 -7.97378 8.9517
2 5.35414 -6.25613 -8.95755
1 6.85134 0.764982 11.2236
2 2.64308 6.30937 -11.3446
2 -4.03855 5.67458 11.1016
2 -6.71289 -0.729687 -11.1139
1 -2.54145 -6.48517 11.2207
3 4.01509 -5.39614 -11.0013
2 11.0123 7.9404 -2.25007
1 -1.35703 13.4776 2.43116
2 -12.2297 5.55068 -2.26441
2 -10.8618 -7.95207 2.25071
2 1.42508 -13.6299 -2.11941
2 12.3597 -5.61855 2.17949
3 1.30874 2.19491 13.4079
3 2.61683 0.0302706 -13.3248
1 9.74232 8.77712 -4.47134
2 -2.75921 12.7135 4.56239
2 -12.4565 4.13928 -4.465
2 -9.58342 -8.7583 4.50688
2 2.8643 -12.7019 -4.47895
2 12.3656 -4.04517 4.44404
2 -1.25969 2.25151 13.473
2 1.37975 2.30043 -13.4821
2 11.0617 6.40332 2.34641
2 0.0164026 12.7538 -2.34034
2 -10.9876 6.41164 2.31467
2 -11.0249 -6.43478 -2.34539
2 -0.123058 -12.6998 2.11969
2 11.1944 -6.40508 -2.15255
2 9.60437 5.38182 4.59049
2 0.137689 11.0622 -4.31053
2 -9.67452 5.69522 4.54151
1 -9.58396 -5.44031 -4.38896
1 0.0351249 -10.9739 4.60317
2 9.61719 -5.5902 -4.24556
2 8.21994 4.66318 6.71899
2 0.0474568 9.647 -6.79255
2 -8.17073 4.66476 6.88065
2 -8.21058 -4.69622 -6.52692
1 -0.139336 -9.59958 6.89385
2 8.24923 -4.6948 -6.51975
2 6.77512 3.93524 8.9499
1 0.0661318 7.94264 -8.97386
2 -6.75229 3.96485 9.0468
2 -6.82318 -4.04014 -8.98551
2 -0.00592671 -8.00138 8.90102
2 6.91249 -3.86668 -8.98773
2 5.4146 3.22816 11.3388
3 -0.0739484 6.14155 -11.193
2 -5.38199 3.10863 11.1798
2 -5.29186 -3.20402 -11.2731
2 0.0840717 -6.40517 11.4655
2 5.3387 -3.15346 -11.1428
2 9.72075 10.6145 -2.28022
2 -4.12647 13.4375 2.15389
2 -13.7672 3.16167 -2.31709
1 -9.60656 -10.4656 2.27831
2 4.16743 -13.4359 -2.15772
2 13.878 -3.33689 2.21204
2 0.0528981 4.687 13.4733
3 4.10668 2.42608 -13.3375
2 9.70296 8.68345 2.25062
2 -2.69496 12.6743 -2.25584
2 -12.3441 4.10346 2.27173
2 -9.55554 -8.72242 -2.27072
2 2.82389 -12.7444 2.24879
2 12.3528 -3.97222 -2.23347
1 8.27028 8.01803 4.50832
2 -2.71388 11.0887 -4.51272
2 -10.9037 3.20221 4.44996
2 -8.09175 -7.92957 -4.52526
2 2.61862 -10.9932 4.53608
2 10.8958 -3.0418 -4.37517
1 7.00559 7.217 6.83917
2 -2.79811 9.53883 -6.70907
2 -9.47346 2.48989 6.62232
2 -6.7535 -7.2181 -6.69524
2 2.71368 -9.48689 6.7447
3 9.56502 -2.31358 -6.73459
2 5.54589 6.45732 8.87816
2 -2.82739 7.9104 -9.0467
2 -8.20869 1.69826 9.13172
2 -5.3309 -6.2899 -8.91143
2 2.66132 -7.78616 9.04381
2 8.22382 -1.48778 -9.03756
2 4.22653 5.44644 11.1589
2 -2.79394 6.32762 -11.2833
1 -6.88022 0.757533 11.2481
2 -3.77785 -5.52235 -11.3193
1 2.76942 -6.35573 11.2667
2 6.8684 -0.730623 -11.096
2 8.20248 11.1412 2.20061
3 -5.56082 12.7162 -2.14372
2 -13.8331 1.70065 2.26514
2 -8.14884 -11.0275 -2.31841
2 5.54026 -12.7507 2.20994
2 13.729 -1.5819 -2.29298
2 6.94508 10.287 4.4395
2 -5.40391 11.1038 -4.40673
2 -12.3942 0.846329 4.55914
2 -6.7752 -10.3537 -4.49044
2 5.43836 -11.1501 4.51678
2 12.392 -0.646261 -4.35173
2 5.5168 9.59767 6.65479
2 -5.60742 9.50179 -6.56463
2 -10.7551 0.107542 6.72158
2 -5.37244 -9.53247 -6.54233
2 5.61901 -9.47324 6.67713
2 10.9667 0.0458865 -6.6964
2 4.07526 8.60279 9.02031
2 -5.56241 8.01058 -8.85103
2 -9.5412 -0.729519 8.94687
2 -3.9116 -8.65047 -8.90313
2 5.56426 -8.01351 8.86184
2 9.4988 0.807986 -8.97621
2 2.71918 7.94381 11.2668
1 -5.55905 6.41229 -11.0946
2 -8.15505 -1.6512 11.2376
2 -2.4487 -7.96695 -11.1992
2 5.52427 -6.33222 11.0565
2 8.17379 1.77849 -11.1859
1 19.2714 0.0491984 0.0482675
2 9.61349 16.6187 -0.00440493
3 -9.62805 16.731 -0.0656501
2 -19.1844 0.0958895 0.0538096
2 -9.61511 -16.606 -0.0425281
2 9.52768 -16.682 -0.111747
2 9.63436 -5.57984 15.5977
2 0.142681 10.922 15.5696
2 -9.50638 -5.55172 15.4809
2 0.041642 -10.9681 -15.612
2 9.70303 5.6816 -15.6977
2 -9.69525 5.31355 -15.6334
2 17.692 2.26028 -0.171081
2 18.0666 -0.876331 2.09383
2 17.7783 0.563579 -2.4352
2 6.94392 16.6796 -0.0857946
2 8.30027 15.823 2.29171
2 9.50475 15.0867 -2.30324
2 -11.0026 14.3455 -0.117688
2 -8.19172 15.8732 2.1825
2 -9.59318 15.0627 -2.27669
2 -17.7865 -2.29793 0.145121
2 -17.8181 -0.691499 2.31838
2 -17.8785 0.805176 -2.18538
2 -6.72388 -16.6005 -0.034082
2 -9.47549 -15.1487 2.20702
2 -8.17675 -15.8839 -2.21577
2 10.9874 -14.2757 -0.0716707
2 9.62097 -15.0782 2.15551
2 8.22507 -15.8722 -2.28086
2 8.08417 -3.1614 15.6433
2 6.6119 -5.58371 15.7184
2 -1.29187 8.64049 15.5871
2 1.42984 -8.57399 -15.6809
2 -1.25049 -8.56558 -15.7086
2 6.95953 5.51103 -15.616
2 16.4764 4.84519 -0.0936113
2 16.6164 -1.66149 4.38032
2 16.4565 1.50335 -4.47866
2 4.10225 16.6941 -0.0377793
2 6.96774 15.0378 4.57404
2 9.63255 13.5223 -4.58833
2 -12.3444 11.8761 -0.0652347
2 -6.89348 15.0027 4.53632
2 -9.45337 13.4889 -4.6418
1 -16.5357 -4.57904 0.125795
1 -16.3214 -1.54084 4.54299
2 -16.5192 1.59625 -4.42147
3 -4.05414 -16.5132 -0.063223
2 -9.76264 -13.4099 4.33837
2 -6.84232 -15.1477 -4.56537
2 12.3076 -11.7473 -0.121109
2 9.38628 -13.3865 4.39094
3 6.78393 -15.0456 -4.4522
2 6.75874 -0.819804 15.7455
2 3.99981 -5.67622 15.7197
2 -2.69712 6.29602 15.6183
2 2.69246 -6.20609 -15.7007
2 -2.52366 -6.17886 -15.686
2 4.09698 5.47282 -15.7046
2 15.1098 7.09704 -0.0148
2 15.2494 -2.41206 6.69215
2 15.0484 2.38119 -6.74529
2 1.4381 16.6844 -0.0234092
2 5.63626 14.1475 6.63929
2 9.60492 11.939 -6.69534
2 -13.821 9.53242 -0.050838
3 -5.43361 14.4969 6.80146
2 -9.54114 11.8833 -6.78765
2 -15.1292 -7.09932 0.146365
2 -15.0212 -2.41472 6.84954
2 -15.1496 2.27285 -6.74182
2 -1.48463 -16.6299 0.0352868
2 -9.64259 -11.9615 6.49611
3 -5.56033 -14.2792 -6.75597
2 13.6934 -9.51102 -0.0421935
2 9.50795 -11.9475 6.75886
2 5.51009 -14.2197 -6.63377
2 5.48648 1.5311 15.7475
2 1.24346 -5.77209 15.7619
2 -4.14067 4.0031 15.642
2 4.13327 -3.80654 -15.7017
2 -3.88119 -3.77458 -15.5517
2 1.35581 5.59144 -15.7301
2 13.7551 9.51067 0.107037
2 13.8451 -3.09093 8.93738
3 13.725 3.22483 -8.93604
2 -1.28645 16.6631 -0.125648
2 4.14379 13.438 8.95685
2 9.56193 10.4022 -8.89631
2 -15.0312 7.15294 -0.0315338
2 -4.07456 13.5188 8.90335
2 -9.56861 10.3318 -8.9786
2 -13.6706 -9.5159 0.0383056
1 -13.7347 -3.25707 8.94758
2 -13.7591 3.06832 -8.92014
2 1.3442 -16.5864 0.021645
2 -9.68905 -10.29 8.89938
2 -4.05298 -13.5507 -8.87743
2 15.1383 -7.37342 -0.0577741
2 9.6169 -10.2533 8.78639
1 4.16646 -13.2514 -8.744
3 4.04602 3.99078 15.7183
2 -1.40199 -5.79013 15.7888
2 -5.4072 1.45664 15.5901
2 5.42121 -1.67441 -15.519
2 -5.35997 -1.53099 -15.631
1 -1.33892 5.66037 -15.6363
2 12.352 11.8488 0.0680431
2 12.1796 -3.91934 11.2214
2 12.2691 3.96819 -11.064
2 -4.03749 16.5633 0.0474213
2 2.91532 12.787 11.1665
2 9.47619 8.69481 -11.0891
2 -16.4418 4.69003 -0.0018361
2 -2.64843 12.6106 11.2723
2 -9.65553 8.5586 -11.0114
2 -12.3508 -11.7983 -0.110205
2 -12.4514 -3.88024 11.2565
2 -12.4036 3.85161 -11.2028
2 4.03825 -16.5045 0.12953
1 -9.63187 -8.67738 11.1848
2 -2.64331 -12.5521 -11.1924
2 16.5773 -4.91447 -0.105537
1 9.58541 -8.54738 11.2208
2 2.8209 -12.5503 -11.2228
1 2.64614 6.20865 15.7056
2 -4.19369 -5.68077 15.8255
2 -6.78058 -0.820026 15.7684
2 6.67648 0.727503 -15.5781
2 -6.83606 0.763783 -15.5353
2 -4.19815 5.51729 -15.6673
2 11.0084 14.3351 -0.0585817
2 11.0453 -4.74585 13.4372
2 10.9382 5.03037 -13.2816
2 -6.78348 16.6141 0.137499
2 1.40756 11.723 13.5022
2 9.58717 7.26907 -13.3024
2 -17.8693 2.45699 0.0222043
1 -1.403 11.7703 13.4076
2 -9.58686 7.05265 -13.3669
2 -11.0577 -14.2701 0.0198167
2 -11.0144 -4.82244 13.4898
2 -11.0471 4.72905 -13.3354
2 6.82319 -16.5234 0.0337321
2 -9.7117 -7.35506 13.4403
2 -1.3147 -11.8464 -13.4489
2 17.8288 -2.39685 -0.0983475
2 9.55138 -7.12262 13.4765
2 1.45227 -11.8815 -13.4074
2 1.5309 8.58275 15.5708
3 -6.85107 -5.60567 15.6406
2 -8.32131 -3.23469 15.7026
2 8.22797 3.19194 -15.4924
2 -8.15769 3.1249 -15.6422
2 -6.8141 5.37468 -15.6565
2 16.3909 3.13187 -2.19461
2 5.49601 15.7424 2.37703