2587
 Atoms. Timestep: 6000
2 0.185211 0.127978 0.478339
2 2.99907 0.0853038 0.716894
2 1.33864 2.02957 -1.41056
3 -2.50485 -0.0585645 0.238212
2 -1.09915 -2.25577 0.00644754
2 1.46024 -2.1038 0.229852
2 2.25686 -1.90723 2.66895
2 -1.20346 2.30243 0.391663
2 -1.35241 -0.943292 2.31233
2 0.167862 -1.80614 -2.44703
2 -0.881942 0.575965 -1.88187
2 5.47606 0.183666 1.16957
2 2.56309 4.94492 1.03783
2 -2.32345 4.53975 0.317509
2 -5.30062 -0.0905236 0.312255
2 -2.65397 -4.37446 0.143858
2 2.76804 -4.80978 0.285654
2 3.37783 -2.92081 5.03013
1 -0.0370965 3.07073 5.00216
2 -2.71394 -1.51062 4.5699
1 0.0300701 -4.58288 -6.15887
2 -2.08932 1.64227 -4.22193
1 4.3612 2.48844 5.80843
3 3.55935 0.698963 -1.89424
2 -0.351604 6.1108 -2.50042
2 3.88473 2.45527 0.0205956
2 -3.7733 2.33853 0.270027
2 -0.80814 3.94455 2.3876
2 -1.73357 3.34353 -2.00322
1 -4.32774 -2.13674 -0.4463
2 -3.45142 1.00671 -2.05986
2 0.157244 -4.82725 0.0293439
2 -1.18383 -3.93135 -2.0812
2 4.26746 -2.57271 0.80113
2 3.79072 -4.13753 2.73313
2 1.56096 -4.12668 -2.0288
2 2.40233 -0.202496 5.24278
2 0.0190584 -1.38847 4.37811
1 -1.38832 0.769731 4.98239
2 1.30925 -3.06408 -4.4242
2 -0.998823 -0.642324 -4.50115
2 1.25654 0.515059 -3.49288
2 1.47892 2.62873 1.31241
2 0.225418 4.41833 -0.257347
2 -2.62773 1.44895 2.38542
2 -2.48528 -1.39886 -2.20824
2 0.116809 -3.06034 2.30005
2 2.70264 -1.63972 -2.3917
1 7.73549 -1.8435 3.7935
2 3.57364 7.19338 -1.61131
2 -7.80374 0.190501 0.00876301
2 -3.97962 -6.88648 -0.0166296
2 4.23205 -7.01503 0.52587
1 -4.41554 6.47562 6.80065
2 -4.08632 -2.28371 6.62662
2 2.59596 3.40359 -5.96094
2 -3.83156 2.41033 -6.49993
3 6.18313 2.72286 1.24366
2 5.96962 1.39677 -1.19762
2 1.1711 7.05577 -0.688128
2 3.14736 7.43902 1.39685
2 -4.88488 4.88755 0.166421
2 -2.328 6.41769 2.42095
3 -3.08779 5.77744 -1.85853
1 -5.95801 -2.43616 1.33946
2 -6.82679 -0.584944 2.5736
2 -1.37119 -7.12322 0.0848785
2 -4.11882 -5.11977 2.16559
2 -2.82248 -6.22399 -2.2492
1 6.64006 -6.82095 1.15874
2 2.962 -6.39296 -1.81695
2 3.86991 -1.2637 7.52987
2 1.3599 -2.45901 6.55272
2 -1.80569 6.6027 6.61472
3 1.53683 -3.67351 -8.0497
2 -0.986409 -2.18309 -6.80114
2 4.48139 4.88006 -0.817196
2 6.05013 -2.46506 5.711
2 3.88425 2.41302 -3.70573
2 -1.35854 6.79189 -0.0650111
2 1.67936 4.47248 3.6115
2 -6.33817 2.36893 0.00392971
1 -3.41867 4.06622 -4.09997
2 -5.43433 -4.46493 0.13511
2 -5.38661 -1.46921 4.62767
2 -4.88463 1.58799 -4.2275
2 1.39331 -7.0716 0.138962
2 -4.13181 -3.76758 4.21148
2 -1.36242 -5.27475 -4.22133
2 6.93559 -2.25893 1.4576
2 5.02891 -5.05701 5.17909
2 1.69018 1.82256 6.4568
2 -1.28793 -2.19925 6.64318
2 -2.22544 0.330011 -6.71097
2 -0.089024 1.64539 -5.88202
2 0.650579 6.48097 1.85558
2 -4.83164 3.29929 -2.20454
2 0.0987246 -6.47935 -2.27607
2 5.02424 -1.84961 3.25562
2 0.0939776 -0.177262 6.75371
2 1.12298 -0.848814 -6.11362
2 3.82445 0.575516 3.05589
2 2.21136 4.86996 -2.10195
2 -3.746 3.86934 2.54324
2 -1.35514 -5.45575 2.34094
2 3.97441 -3.79064 -1.72831
2 1.36906 2.96861 -3.91856
2 -2.57688 3.02865 4.75664
2 -3.74683 -0.604377 -4.46743
2 -1.45858 -3.80855 4.38091
2 3.98323 3.0608 2.48396
2 -3.79337 -3.68139 -2.09526
3 1.33674 -5.4439 2.39831
2 5.19286 -1.12105 -1.48536
2 -0.88984 4.02563 -4.48524
2 -3.84492 0.70236 4.60039
2 -2.37854 -2.83299 -4.41723
1 1.11551 -4.08618 4.63518
2 3.54233 -0.458506 -4.58155
2 9.97049 -0.102021 0.329012
2 5.38347 9.05306 -0.798226
2 -5.03455 9.51944 0.231975
2 -10.6243 0.421836 -0.119844
2 -5.46825 -9.27836 0.144337
2 5.28929 -9.33423 0.413326
2 3.5948 -3.98956 11.0588
2 -0.175223 5.70246 8.54776
2 -5.42753 -3.03252 8.95186
2 0.138363 -7.23475 -8.53592
2 4.20674 2.94641 -8.11683
2 8.58626 2.01715 -0.153558
2 8.55381 0.945749 -2.76213
2 2.42438 9.54923 -0.593066
2 5.51942 7.66658 -3.12837
2 -6.38798 7.20968 0.316114
2 -3.73005 8.7842 2.46314
2 -4.75357 7.78358 -1.97023
2 -9.3416 -1.91174 -0.0185489
3 -9.3731 -0.5662 2.04726
2 -9.1298 0.958692 -2.18607
2 -2.68303 -9.39929 0.312266
2 -5.41612 -7.70254 2.42677
1 2.65419 -3.27638 8.75688
2 1.24772 -5.20424 -10.1356
2 -1.00105 -3.56803 -8.94948
2 1.33195 2.72758 -8.30079
2 6.99833 3.92925 -0.782195
2 8.56986 -2.27801 6.55989
2 -0.0125432 9.5387 -0.12078
2 1.97187 7.08619 3.97405
2 3.85352 5.81645 -5.73511
2 -7.49717 4.64379 0.147007
2 -2.07367 8.16517 4.37872
2 -8.17488 -4.40774 0.279283
2 -8.20464 -1.48046 4.64428
2 -7.61899 1.69377 -4.30699
2 -0.0915149 -9.40202 0.0624116
1 -5.90071 -6.06024 4.55152
2 -2.5965 -7.79013 -4.41119
2 8.5435 -5.56911 2.19357
2 4.84299 -6.6959 3.06454
2 2.07114 -7.09076 -4.48003
2 2.68132 1.07659 8.69785
3 -0.231127 -3.38724 8.60793
2 -2.62204 1.61996 8.66455
2 2.40196 -1.05411 -8.39954
2 -2.48015 -1.07791 -8.7905
2 -1.52789 2.70691 -8.20949
1 6.55795 6.61507 -0.953142
2 5.06092 0.763232 -6.35656
2 -2.57284 9.38599 0.103518
2 1.02776 6.54326 6.35134
2 -4.97109 4.69839 -6.7755
2 -6.66089 -6.77988 0.249779
2 -6.86027 -2.39059 6.94844
2 -6.51694 2.33773 -6.63414
2 2.76229 -9.45814 0.237382
1 -5.588 -4.65432 6.90686
2 -1.03296 -6.98809 -6.35709
1 8.87265 -2.78405 0.0258108
1 5.10083 -3.8008 7.73288
2 1.22696 3.36899 8.46555
2 -2.78368 -3.17803 8.76726
2 -4.12901 -0.788436 8.86852
2 -3.77593 1.1708 -9.01296
2 -5.30222 3.1948 -8.92319
2 6.54046 2.92717 -3.23856
2 1.56177 9.50098 1.88791
2 -6.25478 5.6223 -2.01708
2 -8.20722 -2.8503 2.40717
2 -1.70997 -8.71028 -2.0979
2 6.48551 -4.31519 2.92913
2 1.30773 -1.17621 8.7281
2 5.28053 3.31288 -5.72646
2 -0.458085 5.81982 4.29912
2 -6.20068 4.14365 -4.45359
2 -6.74983 -3.78944 4.69993
2 7.37433 -4.65064 6.74698
2 -1.44856 -0.751693 8.92845
2 7.8231 0.293374 2.10202
2 1.69057 8.05806 -3.4846
2 -7.96787 -1.41633 -2.25338
2 -2.73275 -7.66838 2.32873
2 5.77025 -5.67679 -1.72161
2 5.21356 0.0901143 5.30359
2 1.18046 5.63429 -4.62217
2 -3.50359 5.69848 4.57331
2 -6.3824 -0.596726 -4.41076
2 -2.70585 -6.10232 4.67862
2 4.36845 -5.44905 -3.78113
2 6.62917 -0.918129 7.78904
2 2.78053 5.45811 -8.23997
2 -2.3427 3.98161 7.21504
1 -5.05506 0.262048 -6.72432
1 -1.97049 -4.6684 6.55218
2 2.55693 -4.90075 -5.87656
1 4.7797 4.87133 -3.31365
2 -0.880312 8.52801 2.05849
2 -7.54507 3.23827 -2.30222
2 -6.77706 -5.13756 2.43075
2 1.35284 -8.60732 -1.95455
2 -0.0377747 0.0835071 -8.22992
2 5.08226 5.1252 1.62539
2 -6.37206 4.06189 2.40485
2 -0.000985387 -7.77676 2.2837
2 6.44934 -3.39031 -0.826619
2 6.1005 1.99455 3.7665
2 -5.32472 3.20227 4.77524
2 -5.14345 -2.8301 -4.47998
2 -0.0346078 -6.31417 4.54432
1 1.97418 2.06611 3.77954
2 0.332867 4.65641 -6.85443
1 -0.666332 2.24398 7.42183
2 -3.71484 -1.94835 -6.82916
2 3.20105 -2.31993 -6.341
3 -2.28168 8.08646 -2.11463
2 -7.82015 1.84218 2.21499
2 -5.33139 -5.73203 -2.28534
3 2.66882 -7.83147 2.33694
2 7.56924 -0.687155 -0.602588
2 4.47447 4.82528 4.50934
2 -2.40606 6.36874 -4.2329
2 -6.83922 0.990337 4.59429
2 2.6878 -6.22206 4.65648
2 5.92648 0.545535 -3.82838
2 2.50005 4.20322 6.24372
2 -2.38162 4.50225 -6.42988
2 -5.61926 0.00479987 6.75693
2 -2.41032 -4.52406 -6.57157
2 2.61227 -4.84206 6.6901
2 2.60291 1.1162 -6.77902
2 12.8794 0.092808 0.0668335
2 6.6732 11.4856 -1.08613
2 -6.60731 11.8352 0.281602
1 -15.3011 0.403756 -0.196284
3 -6.76714 -11.5649 -0.058499
2 6.78452 -11.886 0.232197
2 6.22571 -3.91846 11.2674
2 -0.069226 7.54249 10.9441
2 -6.86557 -4.07823 11.3364
2 0.126171 -7.6205 -11.0069
2 6.13839 4.43304 -9.07743
2 -6.77996 4.00991 -11.1277
3 11.1833 2.20665 0.0232323
2 11.5912 -0.845825 2.35632
2 11.4049 0.686967 -2.12126
2 4.04374 11.5932 -1.16973
2 4.2813 10.0569 1.32502
2 6.6116 10.096 -3.2029
2 -7.73111 9.53784 0.277256
2 -5.44673 10.9927 2.54146
2 -6.422 10.2106 -1.92065
2 -12.0171 -2.15198 -0.00968857
2 -12.0293 -0.480963 2.01539
2 -11.8803 0.980859 -2.42546
2 -4.13353 -11.534 0.0810228
1 -6.74937 -10.2148 2.19456
2 -5.3661 -10.6056 -2.07019
2 7.90534 -9.50683 0.325672
2 6.61891 -10.5738 2.49009
2 5.5254 -10.5499 -1.86624
2 -1.43331 5.13147 11.0576
2 3.71902 4.1836 -10.5214
2 9.56027 4.43624 0.0622789
2 9.91538 -1.23879 4.39631
2 9.92175 1.68416 -4.74003
2 3.45191 9.57348 3.89685
3 6.66075 8.3625 -5.35358
2 -9.14989 7.10686 0.314842
2 -3.62508 10.2756 4.85537
2 -6.36487 8.5204 -4.18216
2 -9.85373 -2.15149 6.6656
2 -1.30829 -11.6194 0.0279161
1 -6.77509 -8.53043 4.33858
2 4.0322 -9.74727 -4.24007
2 4.01087 0.482576 10.8464
2 1.08149 -4.13905 11.0031
2 -2.70808 -2.81607 -11.0879
2 1.14354 4.29596 -10.588
2 9.1954 6.93403 -0.793418
3 7.41411 1.90344 -5.49369
2 -1.16722 11.7624 0.208787
2 2.35476 8.9941 6.26982
2 6.30486 6.54693 -7.37135
2 -2.8567 8.90601 6.69921
2 -6.38749 7.11713 -6.60634
3 -9.34775 -6.88833 -0.00357015
1 -12.3326 -1.83906 7.59484
2 -9.30754 2.44443 -6.60812
2 1.27724 -11.8551 0.0406898
2 -6.88861 -6.92361 6.89698
2 -2.58799 -9.25167 -6.49001
2 10.2031 -4.78826 -0.110749
2 6.36104 -7.07528 6.69537
2 2.49804 -8.8788 -6.59263
2 -1.8214 -3.90618 11.1208
2 -4.09536 0.766515 10.9273
2 4.20172 -0.529208 -10.3931
2 -1.54175 4.05713 -10.6663
2 7.96998 9.14008 -1.19347
2 7.43719 -3.31355 8.97069
1 7.53265 4.18048 -6.82658
2 1.19295 8.22397 8.60634
2 7.45694 6.92337 -10.0334
2 -10.994 3.22291 -0.00737836
2 -1.43864 8.436 8.98822
2 -6.50887 5.65198 -8.8008
2 -8.17413 -9.10098 0.118787
2 -8.33265 -3.06524 9.08981
2 -8.03862 3.2657 -8.89137
2 4.1796 -11.8007 0.324786
2 -6.90989 -5.57666 9.137
2 11.5444 -2.34427 0.0856222
2 6.24988 -5.70365 9.08163
2 1.19853 5.10117 10.786
2 -5.48253 -1.63894 11.3788
2 5.38549 1.92449 -10.2114
1 -5.05821 1.83413 -11.2852
2 10.0422 3.12557 -2.18558
2 -7.79503 7.88407 -1.87776
2 -10.8122 -2.84482 2.17081
3 -2.77781 -11.0183 -1.97141
3 2.57986 -1.68165 10.9485
2 0.182025 -2.68297 -10.873
3 8.59897 3.87097 -4.57407
2 0.637202 9.21644 4.18262
2 -7.65936 6.2583 -4.13924
3 -9.49024 -3.6423 4.59881
2 -1.29744 -10.1578 -4.45659
2 -0.221963 -1.90668 10.8232
3 -1.08936 -0.501912 -10.9156
2 -0.215856 8.82301 6.55151
2 -7.82579 4.71701 -6.58207
2 -8.32532 -4.75862 6.75535
2 0.0441799 -9.24082 -6.83596
2 10.219 -4.82538 6.75098
2 -2.79953 -1.47482 11.0779
2 -2.54269 1.75319 -11.2718
3 10.0064 1.04873 2.85847
3 3.73165 9.52555 -2.81656
2 -6.33764 8.64234 2.52776
2 -10.6342 -1.31822 -2.39577
2 -4.13197 -10.0505 2.53639
2 6.44569 -8.04801 -1.41598
1 7.88313 0.642859 5.08758
2 4.07908 8.28278 -5.19982
2 -5.01949 7.80606 4.75033
2 -4.13312 -8.2641 4.67848
3 5.62186 -7.68857 -3.768
2 -7.81683 0.161319 -6.71036
2 -4.18517 -6.78259 6.7643
3 4.05575 -6.95681 -6.19893
2 4.88393 -1.96724 9.90806
2 4.87269 6.55206 -9.53835
2 -2.70005 6.18517 8.9234
2 -6.41464 0.849305 -8.95688
2 -4.27028 -5.44918 9.3379
2 2.54048 -6.05803 -8.09659
1 8.22414 5.06867 -2.53102
2 -0.410855 11.0196 2.63883
2 -9.00352 5.39707 -1.89146
1 -9.46602 -5.18816 2.21364
2 0.0303577 -11.0754 -2.16747
2 0.958717 0.527014 10.6232
2 1.54247 -0.503805 -10.8178
2 6.64013 5.72782 -4.72044
1 -3.04863 11.1465 1.88287
3 -8.75754 4.00471 -4.35519
2 1.21517 -9.64991 -4.46437
2 8.72476 -3.97385 4.63227
2 -0.0554755 1.82635 -10.4937
2 8.52666 3.05502 2.23139
2 1.30903 10.441 -3.58723
2 -7.78234 6.37779 2.47965
2 -9.31146 -3.612 -2.13747
3 -1.46561 -10.264 2.36673
2 8.26283 -6.15363 -1.75238
2 7.32723 3.10436 5.62927
2 0.358702 9.65674 -6.28661
2 -6.54253 5.40932 4.55614
2 -7.8467 -2.87013 -4.37204
2 -1.52655 -8.76025 4.80818
1 6.89532 -6.21492 -5.7843
2 7.82704 1.50827 7.75851
2 1.73733 7.3964 -6.47217
2 -5.03318 4.04668 7.4695
2 -6.32468 -2.17046 -6.82577
2 -1.66831 -7.03668 6.82111
2 5.00541 -4.28843 -5.95745
2 5.16561 1.17117 8.09249
2 -3.63165 3.84673 9.64977
2 -5.0878 -1.3748 -9.24535
2 -1.72261 -5.6467 8.99908
2 2.78726 -2.91525 -10.2136
2 8.12661 7.54772 -3.40573
2 -10.3006 3.23817 -2.38086
2 2.69909 -10.8923 -2.08146
2 10.0005 -3.20021 2.39137
2 -0.163406 2.87442 10.7623
2 2.63879 1.95204 -10.4406
2 7.65152 5.70122 1.1912
2 -0.989204 10.3641 -2.22557
2 -9.17351 4.01146 2.16564
2 -8.09564 -5.94799 -2.17131
2 1.24994 -10.3176 2.26157
3 8.55992 -3.72206 -2.23051
2 6.78277 4.66392 3.59771
2 -0.772146 8.81489 -4.13996
2 -8.10233 3.2217 4.45918
2 -6.55466 -5.21689 -4.52358
2 1.28333 -8.7455 4.6483
2 -7.03585 2.29827 6.89566
2 -5.07248 -4.5409 -6.68797
2 1.26275 -7.16452 6.66793
2 5.88339 -1.68957 -5.63144
2 3.90898 3.53567 8.23825
1 -0.900426 6.78048 -6.44782
2 -5.44505 1.73902 8.87239
2 -3.71746 -3.72327 -8.86622
2 1.12301 -5.51468 8.84111
2 5.0535 -1.41736 -8.10717
3 5.87023 7.63012 1.38363
2 -3.7321 10.2476 -2.01033
2 -10.4083 1.72399 2.15748
2 -6.74364 -8.22369 -2.01757
2 3.92686 -10.3078 2.45311
2 9.8574 -1.38119 -2.33252
2 4.63315 7.13757 3.69056
2 -3.61696 8.60653 -4.21105
2 -5.27868 -7.53346 -4.36757
2 3.86397 -8.59578 4.56936
2 7.11354 -1.88934 -3.26431
3 3.61196 6.69268 6.16157
2 -3.59302 6.95334 -6.34304
2 -8.62015 0.208042 6.61541
2 -3.82886 -6.99258 -6.53704
2 3.90437 -7.27537 6.82924
2 2.52644 5.86494 8.37736
2 -3.46108 5.13932 -8.98654
2 -6.97984 -0.740532 9.1459
2 -2.28082 -6.08251 -8.81586
2 3.71951 -5.75292 9.04579
1 6.7921 1.67196 -8.18252
3 15.5725 0.140345 -0.0158274
2 7.77025 13.8861 -0.882851
2 -8.00803 14.1758 0.401545
2 -8.15862 -14.0631 -0.107578
2 7.68466 -4.69256 13.2629
2 0.195714 9.04925 12.9788
1 -6.68744 -2.67358 13.5355
1 -1.36538 -9.38362 -15.4468
2 5.87349 5.39634 -11.6254
2 -8.30185 4.89316 -13.2588
2 13.9493 2.2451 0.0956383
1 14.2271 -0.391136 2.18137
1 6.47254 14.833 -2.66168
2 6.08525 13.0381 1.18852
3 8.09661 12.279 -3.13901
2 -9.11155 11.8431 0.251811
2 -6.85655 13.4446 2.53551
2 -7.81458 12.8023 -1.90853
2 -14.8059 -2.06113 -0.0398472
2 -14.6898 -0.462985 2.10591
3 -14.464 0.852786 -2.48243
2 -5.49198 -13.8533 -0.0926147
2 -8.41012 -12.1534 2.31436
1 -6.51839 -12.893 -2.44822
2 9.45244 -11.7756 0.377755
2 6.71585 -13.5517 -1.88832
2 4.85725 -4.91457 13.4164
2 -1.09094 6.83667 13.3212
2 1.75187 -6.62912 -12.9192
2 -0.97373 -6.99173 -13.2485
2 12.3858 4.4985 0.198738
2 12.9231 -1.63607 4.55203
2 12.613 1.56235 -4.29709
2 2.35238 13.7559 -0.776307
2 4.87334 11.9218 3.37324
2 7.70686 10.7969 -5.46919
2 -10.5423 9.34481 0.144605
1 -5.5516 12.5486 4.53769
2 -7.84318 11.0282 -4.12793
2 -13.3983 -4.42241 -0.0980265
2 -13.2094 -1.45875 4.3512
2 -13.2983 1.6587 -4.68182
2 -2.65715 -13.9989 0.125238
2 -8.9004 -10.8814 4.5844
1 -5.37028 -11.3915 -4.55294
2 10.7608 -9.41404 0.554383
2 7.89278 -11.12 4.73784
2 5.36714 -12.3719 -4.00278
1 5.87447 -0.162409 12.6007
2 2.36924 -5.06827 13.2362
2 -2.74054 4.73964 13.3483
2 2.78557 -4.33842 -12.7431
2 2.68826 4.89111 -13.0453
2 12.3753 7.19675 -0.31748
2 11.4789 -2.29926 6.67903
2 11.7052 2.60343 -6.66527
2 3.76243 11.3289 5.87751
2 8.10786 9.00374 -7.7463
1 -11.3458 7.65481 -1.54592
2 -3.93333 12.165 6.45759
2 -7.9553 9.45564 -6.3324
2 -11.9719 -6.64472 -0.121126
2 -11.9478 2.53613 -6.73991
2 -8.16115 -9.19245 6.50542
2 -4.04578 -11.5463 -6.68022
2 7.94956 -9.54375 6.9082
2 4.2958 -11.2476 -6.50385
2 4.068 2.26606 12.8487
2 -0.212884 -4.83572 13.0519
2 -3.94719 2.302 13.1475
2 4.21313 -2.01018 -12.7345
2 -3.75 -2.18113 -13.633
2 -0.0521099 4.96062 -13.0394
2 10.3946 9.17851 -0.632133
2 10.1626 -3.10745 8.9874
2 9.7631 3.54801 -8.39192
2 -2.81177 14.196 0.04135
1 2.75018 10.6127 8.25443
1 -13.1158 4.32888 1.43602
2 -3.11853 10.8881 8.74336
3 -7.80789 7.92353 -8.69205
2 -10.8558 -3.38777 8.99604
2 -10.737 3.4641 -8.88556
3 2.75431 -13.9 0.183157
2 -8.24119 -8.01364 8.81936
2 -2.52844 -10.778 -8.74857
1 13.1345 -6.55631 0.0702353
2 7.97371 -8.07897 9.06608
2 2.88624 -10.8012 -8.67767
3 2.55703 4.38733 12.8237
1 -3.14008 -5.87466 11.7155
2 -5.3823 0.0638573 13.5345
2 5.73612 0.255451 -12.3279
2 -5.08765 0.147803 -13.4165
2 -2.75403 4.91017 -13.165
2 9.23249 11.6343 -0.913925
3 9.0036 -3.85113 11.2147
2 8.40744 4.49097 -10.6951
2 -5.37282 14.2156 0.0392619
2 1.34613 9.87061 10.5285
1 -13.0874 2.19639 -0.416136
1 -7.88354 6.50351 -10.9965
2 -9.47745 -11.5127 0.0272885
2 -9.63921 -4.25709 11.3263
1 -9.48928 4.21826 -11.2376
2 5.33017 -14.1134 0.19839
2 -1.08219 -9.87915 -10.8923
2 14.1397 -2.26293 0.230746
2 7.80376 -6.34657 11.0925
2 1.84957 -9.85873 -10.7406
1 -5.3728 -4.9201 13.2304
2 6.72692 3.04032 -12.1696
2 -6.89769 2.53804 -13.3183
2 -5.38421 4.81676 -13.2518
2 12.7935 3.096 -2.00527
2 3.42392 12.6364 1.35283
2 -9.06338 10.0552 -1.97119
3 -13.4661 -2.71083 2.08431
2 -4.10287 -13.1789 -2.13717
2 9.25055 -10.4592 2.55024
2 4.57464 -2.30324 12.6477
2 0.269543 -4.62642 -13.0997
2 11.4209 4.00838 -4.18139
2 2.07144 11.9291 3.54714
2 -8.99477 8.58916 -4.13378
2 -11.9793 -3.79175 4.34526
2 -2.90176 -12.2571 -4.24474
2 9.16431 -8.74009 4.75761
2 1.3605 -2.42776 13.1242
2 -1.22571 -2.18015 -13.0436
2 10.1369 4.80252 -6.36972
2 1.03659 11.4537 5.79828
2 -9.13231 7.0084 -6.39172
2 -10.9876 -4.75572 6.70338
2 -1.34573 -11.6341 -6.59606
2 9.07793 -7.09723 6.69435
2 -1.48099 -2.32939 13.2818
2 -2.31909 0.135225 -13.258
2 8.72235 6.13166 -7.99883
2 -0.224346 10.7707 8.37456
2 -9.31376 5.63117 -8.79636
2 -9.65179 -5.70853 9.01064
2 0.284161 -10.7915 -8.71353
2 9.16862 -5.48567 8.87989
1 -4.01075 -2.48726 13.2503
2 -3.97743 2.5872 -13.5169
2 12.5646 1.55939 2.22216
2 5.50494 12.6281 -3.03888
2 -8.02653 10.9906 2.63174
2 -13.2893 -1.34465 -2.09542
2 -5.7231 -12.4961 2.39971
3 8.13099 -11.1201 -1.89555
3 11.3858 0.915319 4.68104
2 -6.57853 9.81078 4.86374
2 -12.226 -0.755616 -4.40065
1 -5.53298 -10.8418 4.52681
1 6.80805 -10.2948 -4.21319
2 9.93897 0.0570532 6.93844
1 5.2031 8.91369 -7.61559
2 -5.1273 9.9488 7.07028
2 -10.5025 0.141292 -6.54057
2 -5.50057 -9.38757 6.77754
2 5.61273 -8.9754 -6.08033
2 8.84912 -0.815962 9.20668
2 -5.68447 -7.8779 8.96024
2 4.25866 -8.36004 -8.60984
2 7.5634 -1.64502 11.1848
2 -2.75608 7.5031 11.3406
2 -8.03038 1.73121 -11.0677
2 -5.71507 -6.64633 11.3039
2 2.7494 -7.50329 -10.6476
2 11.1706 5.53422 -2.01836
3 0.817989 12.948 1.36531
2 -1.51445 -13.3216 -1.94893
2 10.2575 -7.81781 2.47833
2 2.71615 -0.0826977 12.8372
2 1.64373 -1.9998 -13.0684
2 10.104 6.43318 -4.41863
2 -10.6522 6.20068 -3.88626
2 -10.7169 -6.02058 4.40485
2 10.2523 -6.23986 4.44842
1 -0.114143 -0.120394 13.0546
2 0.202032 0.320637 -12.9029
2 -1.43367 11.2113 6.1797
1 -10.7769 4.84306 -6.31368
2 1.53503 -11.3643 -6.43528
2 -2.74661 -0.114092 13.3264
2 -1.22415 2.61781 -13.1289
2 11.2435 3.76939 2.51463
2 2.6558 12.5489 -3.03761
2 -8.96943 8.63074 2.61736
2 -11.9706 -3.57669 -2.16052
2 -2.86662 -12.5183 2.39841
2 9.53693 -8.74762 -1.74065
2 9.75858 2.92521 4.70436
2 4.39738 10.898 -4.85657
2 -10.6089 -3.09741 -4.50424
2 7.97744 -7.94465 -3.74595
2 9.37009 3.88786 7.38479
2 2.95525 9.97065 -6.75259
2 -6.85039 7.57083 6.42289
2 -9.18911 -2.17465 -6.64193
2 -2.93072 -9.4372 6.74679
2 2.93902 8.29523 -8.67898
2 -5.34818 6.11811 9.27893
2 -7.91214 -1.38049 -8.78606
2 -2.91027 -7.99049 8.89231
2 5.43399 -6.04199 -8.12315
2 6.60742 0.466836 10.2217
2 2.44041 6.63495 -10.7376
1 -6.61783 -0.464214 -11.2196
2 4.16381 -5.37474 -10.4314
2 -1.45999 13.4311 2.26724
2 -11.6833 5.20366 -1.43924
2 -10.7515 -7.37102 2.27203
1 1.06697 -13.6028 -1.94434
2 11.4291 -5.51463 2.22856
2 1.32383 2.12234 12.8602
3 9.38704 8.81936 -5.43425
1 -2.43744 12.3347 4.20249
2 -9.45661 -8.33495 4.40537
2 2.57973 -12.1324 -4.31562
2 11.3424 -3.76093 4.40482
2 -1.34622 2.10185 13.0811
3 1.33769 2.55946 -12.7427
2 10.3179 6.4144 1.54807
2 0.37311 12.5037 -1.9186
1 -11.2433 6.32323 1.01855
2 -10.7359 -6.00641 -2.44792
2 -0.217078 -12.612 2.21201
1 9.15821 -7.26584 0.291711
2 9.38193 5.22807 3.5329
3 -9.2244 5.60065 4.49739
2 -9.1766 -5.2667 -4.59589
2 -0.341586 -11.0669 4.62515
2 8.74413 -5.49635 -4.19176
2 -7.69368 4.99816 6.7535
2 -7.85823 -4.63782 -7.05776
1 7.45984 -3.67327 -5.50136
2 6.58217 3.61957 8.08787
3 0.395469 8.36658 -8.3976
2 -6.94156 4.04219 9.29995
2 -6.46424 -3.75384 -8.90007
2 -0.169277 -7.80266 8.77216
2 6.44693 -3.77157 -7.9949
2 5.26402 2.74969 10.5845
1 -0.26043 6.44172 -10.0395
2 -5.56447 3.03245 11.0926
2 -0.341976 -6.36871 10.9997
2 5.42407 -2.98409 -10.2798
2 9.63389 10.2016 -3.11297
2 -4.21156 13.3691 2.36679
2 -13.0105 3.40915 -2.5492
2 -9.99692 -9.87315 2.27258
2 4.08393 -13.4421 -2.00021
2 12.5757 -3.26254 2.29201
2 0.0106604 4.47015 13.0753
2 3.96755 2.4265 -12.5981
3 8.65658 8.40899 1.20219
2 -2.55336 12.4764 -2.02898
2 -11.1506 3.84202 3.80267
2 -9.31109 -8.29407 -2.30385
2 2.61541 -12.5953 2.3309
2 11.2042 -3.67652 -2.24642
2 7.63224 7.37829 3.52714
2 -2.48297 11.0556 -4.26832
2 -10.1147 1.44176 4.92201
2 -7.79135 -7.61384 -4.50735
2 2.55767 -10.9802 4.47594
2 9.58057 -2.84734 -4.44259
2 6.39888 6.46126 5.6412
2 -2.3738 9.39647 -6.49994
2 -6.53773 -6.9454 -6.76782
2 2.56812 -9.70361 6.9197
2 5.03807 5.78859 8.25519
2 -2.33571 7.63863 -8.53356
2 -8.50277 1.59014 9.22728
2 -5.07698 -6.21384 -8.77374
2 2.46086 -7.99412 8.98419
2 7.84952 -1.33501 -7.59889
2 3.86906 5.09197 10.4867
2 -2.54481 6.60053 -11.0125
2 -6.84651 0.642045 11.1718
2 -3.73478 -5.17368 -11.1176
2 2.32369 -6.58794 11.1672
2 6.9293 -0.612514 -9.9758
2 6.84769 10.2015 1.18283
2 -5.15877 12.5306 -2.11689
2 -12.9967 1.81379 2.01708
2 -8.18838 -10.7564 -2.20233
3 12.6725 -1.53886 -2.18486
2 6.10197 9.51191 3.60324
2 -5.06412 10.8739 -4.24664
2 5.39008 -10.993 4.64379
3 11.1998 -0.589766 -4.50774
2 4.98019 8.81183 5.99342
3 -4.98197 9.28295 -6.49023
1 -10.656 -1.06973 4.26396
1 -5.20508 -9.43501 -6.39019
2 5.27727 -9.59465 6.71213
2 8.30494 -0.569033 -5.10039
3 3.78199 8.26639 8.19308
1 -4.99614 7.8158 -8.81268
2 -9.89391 -0.809699 8.91881
2 -3.79121 -8.48587 -8.65424
2 5.20119 -8.07883 9.19031
2 9.35073 0.889712 -7.2613
2 2.69302 7.58101 10.7447
2 -5.16729 6.22687 -10.8586
2 -8.26486 -1.79278 11.2874
1 -2.39444 -7.5035 -10.9238
2 5.02581 -6.54315 11.3712
2 8.51879 1.65999 -10.047
2 18.2373 0.233237 0.0312779
2 9.02242 16.137 0.630726
2 -9.67264 16.7508 0.171992
2 -19.1213 -0.0225672 0.0410141
2 -10.002 -16.3958 -0.171218
2 9.54263 -16.4512 0.147278
2 8.93918 -5.13333 15.4691
2 0.220869 10.791 14.908
2 -9.53769 -5.60636 16.0631
2 0.602542 -10.7507 -15.4191
2 8.523 6.6635 -16.148
2 -9.59482 5.71086 -15.7796
2 16.7109 -0.425367 2.15503
2 16.9332 0.643725 -2.13988
2 6.09334 15.8335 0.630474
1 7.3491 14.6674 2.77249
2 9.06614 14.9022 -2.94686
2 -10.7782 14.2253 0.170731
1 -8.16801 15.8897 2.33533
2 -9.17242 14.8515 -2.02071
2 -17.5399 -2.13429 0.0340563
2 -17.3562 -0.648378 2.18963
2 -17.9993 1.25951 -2.05952
1 -6.57583 -16.4749 -0.380148
2 -9.59742 -14.8236 1.94214
2 -8.05959 -15.576 -2.24978
3 10.7901 -14.3363 0.307206
2 9.45339 -15.0572 2.64945
2 8.06944 -15.7276 -1.85756
2 6.29592 -5.43986 15.6704
2 2.00414 -8.2718 -15.3041
2 15.4877 4.47234 -0.0578986
1 15.4969 -1.47069 4.29137
2 15.3544 1.59748 -4.2708
2 3.78427 16.1699 -0.453359
2 9.09627 13.1969 -5.6042
2 -7.09834 15.0706 4.52736
2 -9.22184 13.3324 -4.32831
2 -15.9126 -1.19292 4.51688
2 -16.196 1.37934 -4.20867
3 -3.98797 -16.175 -0.0513633
2 -9.808 -13.4693 4.16922
2 -6.85076 -14.7248 -4.47603
2 12.3651 -11.5747 0.541293
2 9.15427 -13.2738 4.42267
2 6.74921 -14.9487 -4.21451
3 7.14983 -0.72204 15.0088
2 3.49265 -5.63722 15.7069
2 -2.34461 6.34265 15.5533
2 3.25822 -5.9041 -15.0699
2 -2.08727 -6.14528 -15.3087
3 4.22963 5.72619 -14.9954
2 14.3215 -2.5151 6.45084
1 13.009 3.35472 -8.79619
2 1.03356 16.518 -0.382916
2 5.24281 13.7425 5.58943
2 9.09819 11.6428 -7.75885
2 -13.2503 9.08777 0.297365
2 -5.6635 14.1688 6.60447
2 -9.35646 11.7743 -6.39907
2 -14.6903 -6.70478 -0.227004
2 -14.608 -2.07494 6.59022
2 -14.6327 2.34975 -6.73811
2 -1.51741 -16.5013 0.196802
2 -5.36329 -13.9748 -6.67387
2 9.45439 -11.9058 6.79279
2 5.32431 -13.7635 -6.40447
2 5.68355 1.41293 14.857
2 0.883676 -5.52246 15.4782
2 -3.82789 3.89111 15.4084
2 4.39301 -3.62737 -15.0876
2 1.5834 5.53588 -15.3097
2 13.2209 9.56444 -0.396971
2 12.9571 -3.20055 8.87462
2 -1.5243 16.6233 -0.208601
2 3.93466 13.2757 7.77459
2 9.2652 10.0646 -9.94038
2 -13.7776 6.40847 0.38415
2 -4.38875 13.2446 8.72602
2 -13.4062 -9.01552 -0.185027
1 -14.1773 -3.18757 8.78935
2 1.09502 -16.6433 0.319251
2 -9.5202 -10.5512 8.40429
2 -3.85918 -13.1203 -8.96233
2 9.35458 -10.5047 9.06537
3 4.22158 -13.0169 -8.6427
2 4.14239 3.82491 14.87
2 -1.56418 -5.51982 15.0224
2 -5.18871 1.55492 15.8101
2 5.80025 -1.2578 -14.843
2 -5.176 -1.14438 -15.6208
2 -1.17633 5.66601 -15.5648
2 11.5005 -3.90643 11.2002
1 10.9571 3.6695 -10.5734
2 -4.31531 16.769 0.066713
2 2.78728 12.2603 10.5237
2 9.33846 8.30986 -12.0438
2 -2.78972 12.5654 10.9379
2 -9.63054 8.92936 -10.7563
2 -12.1422 -11.5026 0.0446367
2 -12.2778 -4.17198 11.2377
2 -12.1904 4.09419 -11.2313
2 -2.4835 -12.2788 -10.9081
2 15.4808 -4.5109 0.0753466
2 9.41119 -8.75272 11.4523
2 2.98701 -12.4271 -10.8557
2 -4.09006 -5.80575 15.8513
2 -6.5139 -0.89234 15.5542
2 7.10279 1.09821 -14.3573
2 -6.70553 1.03976 -15.4747
2 -3.99817 5.83236 -15.4109
2 10.4027 14.2987 -0.820317
3 10.2922 -4.80738 13.3739
2 10.4905 4.71115 -13.3637
2 -7.05623 16.4074 -0.0632866
2 1.52257 11.603 12.7274
2 -17.4686 2.99133 -0.0462616
2 -1.24819 11.6137 12.9544
2 -9.65952 7.24298 -13.4458
2 -10.8441 -13.8586 -0.0123255
1 -9.43061 -2.67852 13.5254
2 -10.9517 4.76151 -13.4335
2 6.5702 -16.2475 0.279979
2 -8.32783 -6.60544 11.4379
2 -1.08248 -11.1536 -13.3505
2 16.7224 -2.09716 0.0526412
2 9.08929 -7.06208 13.3096
2 1.60738 -11.2016 -13.0002
1 1.48993 8.98733 15.8502
2 -6.66484 -5.53613 15.7735
2 -7.93891 -3.18171 15.8594
1 -8.20427 3.32613 -15.4378
3 -6.91506 5.77255 -15.2987
2 15.4075 3.13347 -2.28384
2 4.74807 14.4985 2.94735
2 -15.9493 -2.88317 2.12693
2 -5.30215 -15.4547 -2.32725
2 10.7589 -12.5894 2.46369
2 6.10582 -3.0862 14.6387
2 0.64991 -6.0935 -15.2433
2 14.0902 3.97901 -4.2777
2 -14.5639 -3.66437 4.32188
2 -4.03308 -14.5579 -4.31126
2 3.23341 -3.19758 14.9228
2 -0.811163 -3.70404 -15.1597
2 12.8232 4.91224 -6.41604
1 2.52698 13.6144 5.46996
2 -10.6254 9.29972 -6.39602
2 -13.5643 -4.49623 6.61979
2 -2.86715 -13.8716 -6.57569
2 10.5208 -9.5458 6.66742
2 -2.20396 -1.38939 -15.4893
2 11.4062 5.48233 -8.65438
2 1.29496 12.7565 8.16345
2 -10.5869 7.83474 -8.47646
2 -12.2816 -5.80403 8.94637
2 -1.18085 -13.2272 -8.80374
2 10.5195 -7.99588 8.90582
2 -2.54993 -3.28136 15.4382
1 10.2899 6.07478 -11.316
2 0.0927646 12.4879 10.7193
2 -10.8058 6.43568 -11.0406
2 0.299518 -12.3778 -10.942
2 10.4089 -6.1754 11.1662
2 -5.21483 -3.28582 15.4087
2 -5.4058 3.49673 -15.5596
2 -9.41672 13.4051 2.4254
2 -16.1913 -1.01215 -1.95352
2 -6.85035 -14.8336 2.11911
2 9.43715 -13.5646 -1.71985
2 14.0054 0.781021 4.40819
2 6.36519 12.8769 -5.54085
3 -8.11617 12.6476 4.70147
2 -14.8057 -1.03929 -4.37859
2 -7.26384 -13.1723 4.69117
2 8.0101 -12.5549 -4.01841
2 12.7524 -0.0377181 6.75872
2 6.5168 11.2631 -7.95785
2 -6.79075 11.9297 6.9039
2 -13.561 0.0420449 -6.66851
2 11.4538 -0.672858 9.15736
2 6.55247 9.34326 -10.1619
2 -11.9692 0.992477 -8.78897
3 5.38256 -10.6793 -8.76194
2 10.2055 -1.63798 11.4236
2 -3.82555 10.0633 11.3232
2 -10.7715 1.65252 -10.9942
2 8.78438 -2.35866 13.736
2 -9.57792 2.30701 -13.3526
2 -6.91043 -7.07704 13.8385
2 3.08331 -8.93655 -12.899
2 13.8091 5.49737 -2.06231
2 2.4285 15.0705 1.70838
2 -12.0763 10.2493 -1.88074
2 -14.7917 -5.11217 2.20734
3 11.8005 -10.1174 2.63955
2 4.50927 -0.775687 14.9006
2 12.7065 6.4 -4.23146
2 0.758811 14.2693 3.63802
2 -11.7556 8.62381 -3.85968
2 -13.3597 -6.07301 4.27383
2 -1.52113 -14.8913 -4.29004
3 11.7505 -8.54612 4.525
3 1.87742 -0.889868 15.0687
2 0.383512 -1.29009 -15.1583
2 -0.248424 13.7549 6.27434
2 -11.9662 7.09328 -6.15365
2 -12.3384 -6.9221 6.47291
2 -0.0247592 -13.9454 -6.44972
2 11.6964 -7.00432 6.69422
2 10.0943 7.70192 -9.51716
2 -1.56973 13.1098 8.69959
2 -12.2903 5.71738 -8.67924
2 -10.8324 -8.06103 8.39599
2 1.52731 -13.2578 -8.64572
3 11.8589 -5.54116 8.96096
2 -3.7801 -0.944546 15.4896
2 -2.55452 3.37896 -15.598
2 14.2237 3.88387 2.14731
2 4.0296 14.8867 -2.71754
2 -10.6659 10.9587 2.27383
2 -4.3885 -15.0279 2.18177
2 12.6322 3.17867 4.59493
2 3.95366 13.8083 -4.89461
2 -9.24649 10.1742 4.78046
3 -13.2988 -3.08178 -4.47831
2 -4.43294 -13.4245 4.55328
2 9.29213 -10.1618 -4.02241
2 11.4628 2.40803 6.75955
2 4.17758 12.281 -6.9983
2 -7.93835 9.68049 7.06254
2 -12.0321 -2.23627 -6.59111
2 -4.27695 -11.7802 6.55991
2 8.1201 -9.185 -6.23746
2 4.11006 10.85 -9.16007
2 -6.58565 8.57045 8.93743
2 -10.4849 -1.64086 -8.83779
2 -4.1047 -10.2167 9.07433
2 6.84476 -8.40196 -8.48069
2 10.0534 1.85477 9.08857
2 4.12483 8.76396 -10.9961
2 -5.35595 7.87662 11.2368
2 -9.45912 -0.687174 -10.9367
1 -4.02773 -8.54363 11.1726
2 5.5514 -7.60629 -10.7006
1 8.51673 0.646978 12.0927
2 4.30223 7.09094 -12.9641
2 -4.12386 6.97863 13.5201
2 -8.21878 0.116335 -13.3434
2 -4.33295 -7.1824 13.609
1 -0.179993 15.3869 1.49108
2 -13.4735 -7.60822 1.8897
2 -0.157496 -15.8148 -2.15936
2 12.9835 -7.93167 1.98111
2 2.83215 1.51188 15.2128
2 2.97016 -1.5491 -15.3439
1 11.5776 7.64258 -6.05286
2 -1.71701 15.0195 4.60516
2 -12.1725 -8.39058 4.11743
2 1.25425 -14.7204 -4.19945
2 12.8888 -6.18994 4.56498
2 0.104258 1.19888 15.3574
2 1.70117 0.987701 -14.9938
2 10.7129 9.36746 -7.55202
2 -3.04519 14.549 6.96241
2 -13.3069 4.63422 -6.31149
2 -10.744 -9.60407 6.23652
2 2.74013 -13.8419 -6.48455
1 13.2853 -4.87592 6.83358
3 -2.39579 1.57005 15.3354
2 0.0723648 3.16924 -15.2741
2 12.8424 6.18046 2.20333
2 1.03413 14.8834 -2.91903
2 -11.686 8.46286 2.25791
2 -13.3224 -5.73756 -2.35988
2 12.1827 -8.5811 -1.48928
3 11.7148 5.59975 4.62794
1 -9.41211 7.201 6.72145
1 -12.226 -5.35322 -4.81983
2 -1.51845 -13.4606 4.46026
2 10.6753 -7.66657 -3.88841
2 1.48802 12.4862 -6.07166
2 -10.6568 -4.68092 -6.89919
2 -1.73373 -11.7715 6.72257
2 11.6153 4.01223 9.01193
2 1.23023 10.6784 -8.59435
1 -7.96714 6.55236 8.93144
2 -9.25784 -3.85954 -9.07617
2 8.17458 -5.77636 -8.0641
3 7.9682 2.65105 10.2706
2 1.38694 8.9286 -10.8446
2 -8.07841 -2.80936 -11.2179
3 -1.37299 -8.90742 11.1254
2 6.89454 -5.3547 -10.3348
3 6.63968 2.30395 12.84
2 1.26208 7.38457 -13.0878
2 -5.35598 4.68202 13.2756
2 -6.64743 -2.08851 -13.3317
2 -1.65235 -7.24496 13.1025
2 5.56544 -4.34801 -12.4748
2 -14.5405 5.33318 -1.80594
2 2.5561 -15.7145 -1.83184
2 14.1087 -5.47856 2.15096
2 1.63528 3.80141 15.1618
2 4.24544 0.853446 -14.7903
1 10.95 10.938 -5.30354
2 -15.1078 3.6908 -4.3788
1 3.88796 -14.8175 -4.183
3 14.0657 -3.94471 4.37467
2 -0.97183 3.56086 15.4097
2 2.91015 3.23095 -14.9363
2 -1.93253 14.9132 -2.33818