4321
 Atoms. Timestep: 4193
3 0.148989 -7.50532 -22.9637
1 -3.63386 -3.75645 -23.0429
2 0.253077 -3.59287 -23.0003
3 4.17746 -3.7393 -23.1135
3 -7.33836 0.10998 -22.8406
3 -3.67705 0.0364335 -23.0233
1 0.240609 0.283548 -23.0787
3 4.18797 0.141076 -23.0039
3 7.77912 -0.0226178 -22.821
3 -3.65178 3.87971 -22.9834
2 0.301258 3.8529 -22.9609
1 4.02741 3.9 -22.9723
3 0.228854 7.62798 -22.7828
2 -7.78446 -11.3889 -19.0352
3 -3.75144 -11.4785 -19.1489
3 -0.0299535 -11.4861 -19.394
2 3.91077 -11.4873 -19.3394
3 7.95634 -11.4913 -19.0921
3 -11.5253 -7.78778 -18.9272
2 -7.54675 -7.49259 -19.096
1 -3.67414 -7.72165 -19.3105
2 0.153815 -7.68834 -19.311
2 3.86569 -7.59655 -19.3553
3 7.78947 -7.59018 -19.4344
2 11.5237 -7.47633 -19.1968
3 -11.4893 -3.83793 -18.904
2 -7.62169 -3.85867 -19.1473
3 -3.84527 -3.74521 -19.2393
1 0.159022 -3.75858 -19.3333
3 3.95336 -3.83714 -19.343
1 7.69246 -3.80395 -19.3251
3 11.7064 -3.67322 -19.1271
3 -11.4766 -0.132475 -19.0318
1 -7.68467 -0.0398798 -19.2405
1 -3.65181 0.00747548 -19.3718
2 0.117067 0.0781804 -19.3429
1 3.9336 0.0378223 -19.2136
2 7.91766 0.0684266 -19.2739
2 11.7171 0.184892 -19.0962
1 -11.5333 3.84168 -19.1918
2 -7.6249 3.90598 -19.4084
2 -3.64132 3.93725 -19.2085
1 0.261138 3.93839 -19.3301
1 3.99606 3.89145 -19.2966
1 8.01748 3.89539 -19.2878
2 11.8494 3.75052 -19.0284
3 -11.2826 7.54981 -18.9595
2 -7.55848 7.58901 -19.193
2 -3.60842 7.53559 -19.2082
2 0.301613 7.70142 -19.3044
1 4.0572 7.64649 -19.2068
3 7.94 7.7878 -19.1349
3 11.6494 7.77815 -18.8377
3 -7.4323 11.3677 -19.0854
3 -3.72247 11.5837 -19.2291
2 0.151749 11.4097 -19.127
2 4.22472 11.3296 -19.2013
2 7.8321 11.459 -19.0695
3 -7.55652 -15.1179 -15.3748
2 -3.58191 -15.3474 -15.6457
3 0.151051 -15.1953 -15.5188
2 3.90648 -15.2123 -15.5522
1 7.82392 -15.1989 -15.3336
1 -11.5529 -11.5545 -15.298
2 -7.72533 -11.5249 -15.3523
1 -3.62042 -11.444 -15.4615
1 0.188055 -11.5518 -15.5548
2 3.92683 -11.4409 -15.4625
1 7.73858 -11.4859 -15.4316
1 11.7906 -11.6161 -15.6313
2 -15.1842 -7.8075 -15.2496
3 -11.5215 -7.70736 -15.3134
3 -7.60747 -7.71656 -15.4449
1 -3.75051 -7.602 -15.5322
1 0.147351 -7.59249 -15.6218
1 3.93792 -7.61163 -15.4818
2 7.69039 -7.63703 -15.6218
1 11.4698 -7.66743 -15.506
1 15.4398 -8.01274 -15.5385
1 -15.6151 -3.74162 -15.5041
2 -11.4789 -3.71494 -15.3066
2 -7.66526 -3.84061 -15.462
1 -3.77576 -3.74005 -15.428
2 0.0184134 -3.65429 -15.4109
3 4.02403 -3.75852 -15.3963
2 7.70249 -3.97664 -15.4846
2 11.6464 -3.81348 -15.4384
2 15.3294 -3.87655 -15.358
1 -15.3204 0.0776592 -15.1314
3 -11.6217 -0.0840422 -15.2976
2 -7.66252 0.0235224 -15.4973
2 -3.89868 -0.209622 -15.4047
2 0.0126888 0.00811073 -15.5049
1 4.05954 -0.118688 -15.6345
1 7.8887 0.0133879 -15.4262
2 11.8068 0.0550298 -15.4378
3 15.3897 -0.0316268 -15.3871
3 -15.2074 3.85176 -15.2259
2 -11.4197 3.76083 -15.4572
2 -7.73288 3.8631 -15.302
2 -3.82105 3.83335 -15.5124
1 0.205319 3.77267 -15.5947
3 4.01643 3.83285 -15.5465
2 7.88729 3.97988 -15.4773
1 11.778 3.93999 -15.3474
3 15.6837 3.96369 -15.3141
2 -15.2275 7.71413 -15.2837
2 -11.5562 7.56079 -15.2496
2 -7.50492 7.57747 -15.423
2 -3.68596 7.71288 -15.6509
3 0.117283 7.6154 -15.4253
1 4.08712 7.58934 -15.4587
1 7.89225 7.62557 -15.4513
1 11.7927 7.62723 -15.5042
1 15.3595 7.86423 -15.5858
3 -11.4016 11.2657 -15.3503
2 -7.72417 11.4224 -15.3632
2 -3.62583 11.4634 -15.4749
3 0.231779 11.517 -15.4376
1 4.07824 11.6233 -15.5647
2 7.74237 11.4987 -15.4367
2 11.5773 11.5168 -15.2987
2 -7.87271 15.0842 -15.5794
1 -3.85616 15.4076 -15.8401
2 0.0589455 15.2904 -15.5441
2 4.05051 15.4519 -15.5282
3 7.79946 15.1721 -15.4279
2 -7.60188 -19.0553 -11.5564
2 -3.86744 -18.9495 -11.686
3 0.03303 -19.1492 -11.7358
2 4.0094 -19.1258 -11.6974
2 7.50125 -18.9296 -11.5349
3 -11.496 -15.3096 -11.5525
2 -7.59445 -15.3926 -11.5116
1 -3.6797 -15.4552 -11.5134
2 0.0908187 -15.3628 -11.6838
3 3.87548 -15.191 -11.4422
3 7.68989 -15.2808 -11.6418
3 11.4725 -15.4098 -11.7854
1 -15.5083 -11.6746 -11.8312
3 -11.5171 -11.5449 -11.5001
1 -7.61184 -11.6378 -11.5657
2 -3.74093 -11.5143 -11.5489
3 0.05585 -11.3524 -11.5911
2 3.94031 -11.3962 -11.7363
2 7.85147 -11.5763 -11.5897
2 11.6116 -11.6498 -11.6711
2 15.5638 -11.5009 -11.6854
1 -19.0656 -7.54047 -11.1301
2 -15.421 -7.66517 -11.4856
2 -11.4149 -7.7033 -11.5537
2 -7.50334 -7.64286 -11.6951
1 -3.86495 -7.67808 -11.5261
2 0.196622 -7.675 -11.6773
1 3.90974 -7.6523 -11.7091
2 7.68212 -7.73544 -11.6919
1 11.495 -7.76269 -11.6238
3 15.3575 -7.80412 -11.6545
3 18.9974 -7.78987 -11.5341
1 -19.072 -3.84709 -11.458
3 -15.4826 -3.77213 -11.4334
1 -11.478 -3.78226 -11.4832
1 -7.64589 -3.77769 -11.5847
3 -3.76645 -3.8695 -11.6353
2 0.00688303 -3.80316 -11.6354
2 3.76753 -3.74157 -11.7423
2 7.92859 -3.87754 -11.6934
2 11.5368 -3.74101 -11.7389
3 15.2774 -3.96077 -11.5397
2 19.0591 -3.96645 -11.7377
1 -19.3513 0.054251 -11.5065
2 -15.1987 0.0126373 -11.3224
3 -11.4614 0.02325 -11.4121
2 -7.64367 -0.0499589 -11.548
3 -3.77928 0.0332094 -11.5407
2 0.0099621 -0.101975 -11.5624
1 3.89509 0.0106708 -11.4792
1 7.78274 0.0994773 -11.5912
2 11.6392 0.111542 -11.6286
2 15.4945 -0.0717 -11.5977
3 19.2004 -0.204664 -11.6334
2 -19.2039 4.10498 -11.4365
2 -15.3029 3.64428 -11.3715
2 -11.5542 3.91339 -11.3582
2 -7.76258 3.66943 -11.5473
2 -3.83823 3.8263 -11.5258
1 0.162099 3.76198 -11.6917
3 4.0572 3.83835 -11.6807
1 7.84697 3.88339 -11.5582
1 11.6592 3.92202 -11.525
1 15.5159 3.81836 -11.4977
3 19.1854 3.55949 -11.5519
3 -18.9232 7.56796 -11.221
3 -15.2084 7.66455 -11.4368
2 -11.4107 7.68335 -11.3066
2 -7.61908 7.51724 -11.4606
2 -3.87487 7.61863 -11.5466
2 0.100283 7.53419 -11.5605
2 3.98175 7.69155 -11.7376
2 7.96763 7.75467 -11.766
1 11.6828 7.73572 -11.69
3 15.4663 7.64488 -11.5272
2 18.9863 7.83928 -11.5627
3 -15.2755 11.3686 -11.4726
2 -11.4967 11.413 -11.4992
3 -7.64253 11.5042 -11.487
1 -3.80186 11.4018 -11.7248
2 0.108836 11.3958 -11.6773
1 3.92824 11.3739 -11.5948
2 7.75236 11.4339 -11.4849
2 11.7144 11.538 -11.609
3 15.2031 11.4566 -11.542
1 -11.6527 15.2578 -11.7096
2 -7.82951 15.2775 -11.6939
2 -3.79331 15.3376 -11.8051
1 0.0474759 15.3544 -11.6708
1 3.86123 15.4776 -11.6288
2 7.56441 15.3653 -11.6019
3 11.5719 15.1427 -11.5605
1 -7.80564 18.8221 -11.7526
1 -3.9274 19.0013 -11.7406
1 -0.101805 19.0139 -11.8107
2 3.96937 19.0643 -11.9087
2 7.91081 18.9177 -11.5713
3 0.0126166 -22.7892 -7.84926
3 -11.4977 -18.9848 -7.74295
3 -7.63575 -19.0911 -7.90202
2 -3.85904 -19.3097 -7.98301
1 0.142522 -19.1758 -7.95738
2 3.90722 -19.246 -7.94267
3 7.55074 -19.054 -7.89888
1 11.3779 -18.8347 -7.87998
3 -15.1106 -15.0121 -7.70623
2 -11.4816 -15.284 -7.6049
2 -7.67078 -15.452 -7.736
2 -3.71594 -15.4764 -7.8269
3 0.141598 -15.4709 -7.70162
2 3.72005 -15.4091 -7.88831
2 7.48816 -15.3814 -7.8098
2 11.6719 -15.4429 -7.8473
3 15.2429 -15.1953 -7.87025
2 -18.8122 -11.4856 -7.67244
2 -15.3201 -11.4751 -7.72563
1 -11.429 -11.4546 -7.65274
1 -7.61101 -11.4753 -7.69958
2 -3.74105 -11.4932 -7.80138
3 0.111255 -11.5826 -7.82553
2 3.80152 -11.4404 -7.71761
1 7.71234 -11.4872 -7.87368
2 11.5676 -11.5542 -7.68917
1 15.3874 -11.6179 -7.82808
3 19.073 -11.4681 -8.00041
3 -19.1358 -7.74373 -7.56701
1 -15.1471 -7.75842 -7.57472
2 -11.3165 -7.71295 -7.72979
2 -7.6629 -7.66974 -7.67964
1 -3.86234 -7.61905 -7.81027
1 0.0411302 -7.65813 -7.77076
1 3.8747 -7.70551 -7.80654
1 7.59802 -7.72873 -7.66934
2 11.4163 -7.62732 -7.59506
3 15.3444 -7.69155 -7.71209
2 19.1086 -7.73087 -7.85529
2 -19.1845 -3.86004 -7.59594
1 -15.3683 -3.91658 -7.52485
1 -11.4279 -3.77044 -7.72968
2 -7.7035 -3.81371 -7.7152
2 -3.85718 -3.92002 -7.66268
2 -0.0736669 -3.94103 -7.71426
2 3.86811 -3.71809 -7.80475
2 7.68245 -3.74581 -7.75759
2 11.4032 -3.85934 -7.6237
1 15.3373 -4.08612 -7.96744
2 19.1602 -3.89557 -7.75233
2 -22.8189 0.159782 -7.61388
2 -19.2147 0.0594914 -7.4116
1 -15.3577 0.0450988 -7.51357
2 -11.4451 0.0584228 -7.53824
1 -7.66622 0.0729462 -7.64179
1 -3.87961 0.106423 -7.70754
2 0.046 -0.0604259 -7.82634
1 3.79099 -0.0500566 -7.76924
2 7.79834 -0.0322276 -7.82107
1 11.4856 0.00467527 -7.72325
1 15.4111 -0.100416 -7.83349
1 19.2624 -0.0276702 -7.79113
3 22.6457 -0.157777 -7.65052
2 -18.9822 3.9625 -7.4475
1 -15.2654 3.84153 -7.53825
3 -11.4761 3.81634 -7.67844
3 -7.62407 3.81609 -7.75108
3 -3.87696 3.78324 -7.74952
2 -0.0816761 3.76037 -7.8275
2 3.68164 3.75642 -7.72584
1 7.80074 3.87295 -7.75298
1 11.6617 3.81416 -7.83769
1 15.4856 3.8397 -7.82895
2 19.3631 3.85801 -7.93587
1 -19.0806 7.57076 -7.34306
2 -15.2644 7.7005 -7.52884
2 -11.4601 7.65331 -7.65749
1 -7.66548 7.70007 -7.79621
2 -3.80347 7.54617 -7.82586
2 0.102693 7.62382 -7.92747
2 3.81181 7.58014 -7.82757
2 7.69738 7.69189 -7.82299
1 11.5768 7.71041 -7.75575
3 15.3255 7.76505 -7.77335
2 19.1026 7.87008 -7.8664
3 -18.8537 11.3544 -7.64443
2 -15.1306 11.1908 -7.52365
2 -11.5254 11.5812 -7.74384
1 -7.7599 11.5656 -7.80061
1 -3.7785 11.5494 -7.84807
1 -0.0558516 11.4712 -7.90831
2 3.77179 11.4681 -7.73916
1 7.74039 11.5762 -7.74175
3 11.5744 11.4912 -7.89198
1 15.2732 11.5457 -7.87048
2 18.7977 11.4672 -7.87014
3 -15.1104 15.2128 -7.76783
1 -11.6436 15.2733 -7.77989
2 -7.69351 15.3326 -7.78214
1 -3.94421 15.4226 -7.74206
2 -0.0875053 15.4105 -7.73018
1 3.76473 15.47 -7.86282
2 7.6562 15.3148 -7.76681
2 11.6012 15.3071 -7.78367
2 15.0863 15.1612 -7.83032
1 -11.5144 19.1404 -7.99671
2 -7.57816 19.0425 -7.91173
2 -4.00984 19.0173 -7.87311
3 -0.100275 19.1971 -7.79432
2 3.94922 19.1373 -7.98712
2 7.87146 19.0141 -7.84962
3 11.5039 18.8757 -7.86826
1 -0.0722887 22.4249 -7.70038
3 -4.04968 -22.9025 -4.12177
3 0.0229901 -22.9131 -3.92793
3 3.86987 -22.7918 -3.93446
3 -11.4889 -18.9986 -3.9165
1 -7.69832 -19.2824 -4.04056
2 -3.88432 -19.2871 -3.86682
2 0.035705 -19.3204 -4.00617
2 3.84937 -19.3441 -3.95555
1 7.63373 -19.2384 -4.02768
2 11.5084 -19.2433 -4.26656
2 -15.3132 -15.3777 -3.98935
2 -11.4629 -15.3626 -3.91452
1 -7.59959 -15.4523 -3.85387
1 -3.70389 -15.5085 -4.05657
2 0.13049 -15.5392 -4.00733
1 3.80168 -15.4339 -3.91597
1 7.65586 -15.4669 -3.90025
1 11.4705 -15.4192 -3.9316
1 15.4354 -15.5128 -4.03332
3 -18.9154 -11.4929 -3.72972
2 -15.2394 -11.444 -3.67031
2 -11.5192 -11.6106 -3.824
2 -7.56598 -11.5242 -3.7911
2 -3.71053 -11.5606 -3.83035
2 -0.0244491 -11.6219 -3.89005
1 3.77725 -11.6057 -3.90988
2 7.71478 -11.5264 -3.85566
1 11.5076 -11.5543 -3.96679
2 15.2657 -11.6254 -4.02979
1 18.9884 -11.5722 -3.89898
2 -19.0271 -7.73529 -3.8772
2 -15.2775 -7.78319 -3.78188
2 -11.4292 -7.73968 -3.80233
2 -7.52695 -7.83975 -3.76066
2 -3.89279 -7.84075 -3.93063
1 -0.00370742 -7.81549 -3.92052
2 3.82671 -7.66295 -3.91632
2 7.67366 -7.83346 -3.88139
2 11.4616 -7.77301 -3.92265
2 15.1692 -7.76834 -3.88985
2 19.0106 -7.77657 -3.90916
2 -22.6895 -3.84792 -3.76719
2 -19.114 -3.82542 -3.66816
2 -15.3499 -3.83406 -3.85886
2 -11.4908 -3.84244 -3.68672
1 -7.72854 -3.74502 -3.8767
1 -3.83156 -3.8274 -3.91916
1 -0.0392191 -3.73532 -3.88992
2 3.79292 -3.88251 -3.84857
3 7.60686 -3.81826 -3.87554
1 11.585 -3.77729 -3.98598
2 15.3516 -3.8357 -3.95453
3 19.1865 -3.93847 -3.97059
2 22.8688 -3.99287 -3.97976
2 -22.7594 -0.0154418 -3.71906
3 -19.1116 -0.119995 -3.77014
2 -15.3664 -0.155692 -3.95509
2 -11.5504 0.0633185 -3.80334
1 -7.77219 0.0353283 -3.72204
1 -3.89632 0.00971595 -3.8134
1 -0.00436218 0.169308 -3.85749
2 3.81634 -0.0227852 -3.85267
1 7.63897 -0.0391988 -4.00309
1 11.5755 -0.0014299 -4.00629
2 15.4989 -0.108272 -4.0083
2 19.2673 -0.259865 -3.97838
1 22.7555 -0.00711173 -3.87696
1 -22.7924 3.85085 -3.71076
2 -19.1253 3.82374 -3.66818
2 -15.3488 3.6952 -3.69654
1 -11.493 3.76216 -3.76452
3 -7.59881 3.82536 -3.88931
2 -3.76554 3.83659 -3.79458
2 -0.0204747 3.80555 -3.89404
2 3.77742 3.93416 -3.85495
2 7.70444 3.82057 -3.88505
1 11.5796 3.92611 -3.93374
2 15.4703 3.91924 -4.16417
2 19.183 3.71948 -3.85095
3 22.4382 4.0445 -3.85299
2 -18.9867 7.70179 -3.56161
2 -15.3636 7.56037 -3.62763
2 -11.3953 7.52976 -3.83688
3 -7.62906 7.60281 -3.97168
3 -3.83657 7.62501 -3.93573
2 -0.0858062 7.69359 -3.84408
1 3.89753 7.66366 -3.83426
2 7.72919 7.75874 -3.93651
1 11.6468 7.64799 -4.11233
1 15.3277 7.80459 -3.88358
2 19.0588 7.90831 -3.8553
2 -19.2467 11.8677 -4.00354
2 -15.2328 11.5249 -3.93939
2 -11.531 11.4476 -3.89029
2 -7.68747 11.5564 -3.98087
1 -3.75054 11.5453 -3.9244
2 -0.0622974 11.6821 -3.97623
1 3.80321 11.5487 -3.87277
2 7.57692 11.598 -3.83379
1 11.5879 11.5694 -3.91605
3 15.2499 11.5546 -3.99655
3 19.0358 11.5409 -4.0398
2 -15.3141 15.2936 -3.9129
1 -11.4336 15.2352 -3.85055
2 -7.66996 15.3381 -3.93431
3 -3.98551 15.3763 -3.91015
1 0.00921328 15.3644 -3.98571
2 3.90437 15.3506 -4.0007
2 7.76405 15.3498 -3.98926
2 11.3381 15.201 -4.03523
2 15.3478 15.3359 -4.21724
3 -11.3973 18.9794 -3.81851
2 -7.66527 19.0917 -3.73822
2 -3.94633 19.0625 -3.88693
2 -0.101557 19.2068 -3.72561
2 3.90404 19.0514 -4.04034
2 7.56583 19.0532 -3.91927
2 11.6885 19.1188 -4.06554
2 -3.90334 22.7316 -4.08707
1 0.0305355 22.4535 -3.94376
1 3.79099 22.8394 -4.05835
3 -7.73459 -22.7176 -0.144512
2 -3.91055 -22.7962 -0.0952292
3 -0.0174889 -22.9126 -0.136012
3 3.66793 -23.0686 0.0330773
3 7.41569 -22.9179 0.0166496
1 -12.2348 -19.8114 -0.0543682
3 -7.74813 -19.1593 0.00803769
3 -3.87115 -19.182 0.0497308
1 -0.12388 -19.2982 -0.073448
2 3.69593 -19.3041 -0.13123
3 7.71472 -19.3092 -0.0373647
1 11.5835 -19.3001 -0.0695115
2 -15.3022 -15.3399 0.125498
1 -11.413 -15.3647 0.0253162
1 -7.67313 -15.4498 -0.0506176
2 -3.78058 -15.3995 0.00849948
3 0.0695807 -15.5289 -0.0350919
3 3.781 -15.4853 -0.102623
2 7.51271 -15.5044 0.0261611
2 11.5063 -15.4227 -0.23725
3 15.234 -15.336 -0.188277
2 -19.1043 -11.6207 0.00144682
1 -15.2463 -11.4912 0.0126641
1 -11.3757 -11.6447 0.0841662
1 -7.61343 -11.5846 0.0514966
2 -3.85021 -11.6312 0.0931604
1 0.0255023 -11.5904 -0.0377513
3 3.65261 -11.5228 -0.000579893
1 7.62659 -11.5177 -0.126601
2 11.3055 -11.6079 -0.0232824
2 15.2766 -11.566 -0.195386
3 19.038 -11.3858 -0.1276
1 -22.6023 -7.68923 -0.0839174
2 -19.0165 -7.85665 0.255617
3 -15.2788 -7.65294 0.0739377
1 -11.5123 -7.75739 0.172393
2 -7.65392 -7.84358 0.0898297
2 -3.87764 -7.61659 0.123922
1 0.170715 -7.72883 0.119366
2 3.63661 -7.70078 0.0443214
1 7.5795 -7.57511 -0.110761
2 11.5085 -7.60742 -0.101109
2 15.2749 -7.71135 -0.335185
3 19.0352 -7.68981 -0.133571
3 22.5938 -7.61244 -0.21121
2 -22.7365 -3.99818 0.0759702
2 -19.1662 -3.85667 0.115652
2 -15.0823 -3.93165 0.193904
2 -11.3993 -3.84589 0.0690199
2 -7.60658 -3.88646 0.152372
2 -3.90256 -3.79765 0.0135658
2 -0.020471 -3.78205 0.165936
1 3.72307 -3.88125 0.178927
1 7.48538 -3.80033 0.150726
1 11.4028 -3.72083 -0.0430765
1 15.1837 -3.89879 -0.0652659
2 19.0339 -3.95144 -0.117837
2 22.8087 -3.90051 -0.183655
2 -22.6772 0.138314 0.200418
3 -19.1136 -0.154096 0.0398204
1 -15.2463 -0.137562 0.17014
1 -11.4298 0.135243 0.243512
1 -7.645 -0.0469476 0.270564
2 -3.86516 -0.0267728 -0.00315269
1 -0.135628 -0.0703313 -0.0584123
2 3.85305 0.0823741 0.0874125
1 7.64611 -0.0270168 -0.0307062
2 11.4775 -0.0132705 -0.0552342
2 15.2883 0.0188645 -0.190761
2 19.0677 -0.145467 -0.0443689
3 22.8422 0.00777254 -0.111511
2 -22.7487 3.79871 0.252975
1 -19.0248 3.95082 0.181174
2 -15.3715 3.88454 0.0748428
2 -11.3525 3.80734 0.111197
2 -7.59031 3.91124 0.168822
1 -3.82947 3.74612 0.0035487
3 -0.0556061 3.86978 0.0214992
2 3.88891 3.85523 0.040578
2 7.49602 3.96766 0.0176501
2 11.5909 3.92635 -0.119687
1 15.5035 3.82216 -0.0138766
1 19.1452 3.77389 0.124524
3 22.5557 3.79297 0.0429196
1 -22.7288 7.69748 0.149161
2 -19.1251 7.69972 0.00352492
2 -15.2877 7.65122 0.124116
2 -11.4797 7.51581 0.0528641
2 -7.5258 7.61756 0.0302657
2 -3.74664 7.77872 -0.136084
2 0.0014712 7.64864 -0.00478275
1 3.84474 7.89958 0.00366353
2 7.66601 7.66517 -0.183255
2 11.5256 7.78062 -0.133246
1 15.4307 7.77479 -0.0783278
2 19.1445 7.93037 -0.0491184
3 22.4629 7.66826 0.0615718
3 -18.9612 11.5463 0.102052
2 -15.1594 11.592 0.0445138
2 -11.41 11.4401 0.051947
2 -7.64489 11.4589 0.0771023
2 -3.78459 11.4243 -0.0744047
3 0.0435482 11.5117 -0.0145102
2 3.94447 11.6811 0.0132326
3 7.54478 11.6274 0.0093077
2 11.5931 11.5676 -0.0857294
2 15.3398 11.5851 -0.0746881
2 19.0279 11.6098 -0.0956952
2 -15.1864 15.3829 0.0538568
1 -11.4711 15.2732 0.0812763
1 -7.70428 15.2284 -0.0800265
1 -3.87698 15.2774 0.0645733
2 -0.107618 15.2526 -0.170373
2 3.84323 15.2969 -0.175607
1 7.66329 15.3866 -0.0485145
1 11.5616 15.2906 -0.106703
2 15.3279 15.4085 -0.0937877
1 -11.5029 19.1634 -0.0487338
2 -7.64422 19.0873 -0.029118
1 -3.90646 19.0824 0.04522
3 -0.013351 19.0406 -0.0433748
2 3.79109 19.2864 -0.109315
2 7.53875 19.2463 0.0782631
2 11.6124 19.2712 -0.148217
3 -7.37866 22.5538 -0.175288
3 -3.90485 22.7372 -0.164272
1 0.0319897 22.7591 -0.00991565
1 3.81619 22.9158 -0.257163
3 7.39524 22.5207 -0.0453643
3 -3.83429 -22.9415 3.65916
2 -0.00385019 -23.0158 3.68298
3 3.84362 -22.9925 3.89761
2 -11.6822 -19.3325 4.09948
1 -7.75049 -19.2529 3.88951
1 -3.78901 -19.301 3.86002
3 -0.0117809 -19.2913 3.86657
1 3.72726 -19.1569 3.75722
2 7.60254 -19.1601 3.66647
1 11.4301 -19.1833 3.7751
2 -15.2544 -15.3621 3.9125
2 -11.5209 -15.46 3.90942
2 -7.76187 -15.349 3.99203
2 -3.87213 -15.4102 3.92992
2 -0.0365508 -15.469 3.87473
1 3.72439 -15.3869 3.70897
2 7.61054 -15.3442 3.91501
1 11.4157 -15.363 3.66801
2 15.1618 -15.3173 3.73568
2 -19.0398 -11.6235 3.93693
1 -15.2017 -11.4815 4.03197
2 -11.4751 -11.525 4.06137
1 -7.69435 -11.6443 3.97832
1 -3.72233 -11.5813 4.04712
2 0.0109904 -11.5416 3.94445
1 3.83714 -11.475 3.79955
1 7.53027 -11.4691 3.75887
1 11.3671 -11.5084 3.81227
2 15.3388 -11.6067 3.61248
2 19.0157 -11.4808 3.80452
2 -19.1241 -7.79062 3.9792
3 -15.2702 -7.61626 3.96282
1 -11.4645 -7.61082 4.04441
2 -7.54035 -7.66795 4.09709
1 -3.82749 -7.70077 4.12569
2 -0.0644744 -7.68675 4.02231
2 3.754 -7.58021 3.96583
2 7.44538 -7.57136 3.73067
2 11.3928 -7.70612 3.80442
1 15.243 -7.67968 3.70568
1 18.9922 -7.78777 3.72324
2 -22.6849 -3.91384 3.96692
2 -19.1303 -3.85425 4.00441
2 -15.151 -3.83666 4.02297
1 -11.4272 -3.82713 4.10093
1 -7.6056 -3.77215 4.03409
2 -3.74465 -3.78861 4.03154
3 -0.000228819 -3.87745 4.0437
3 3.82558 -3.81785 3.8844
2 7.64646 -3.83369 3.85839
1 11.3041 -3.81803 3.86064
2 15.1891 -3.96645 3.87657
2 19.1051 -3.99248 3.90339
3 22.559 -3.76735 4.01989
2 -22.7463 -0.127206 4.0499
2 -19.1949 0.00535818 3.90123
3 -15.3284 -0.0577652 4.03396
2 -11.4742 0.0430032 4.1332
1 -7.52775 0.121339 4.00346
1 -3.8311 0.117943 4.09686
2 -0.0243675 -0.0588511 4.08435
1 3.76996 0.0991554 4.05256
2 7.64114 0.0108929 3.78389
1 11.4005 0.0107239 3.77541
1 15.2968 -0.04887 3.809
1 19.0096 -0.0835743 3.7938
3 22.594 0.0993774 3.79294
3 -22.8934 3.79725 4.0712
3 -19.0248 3.85295 3.89741
1 -15.342 3.75212 3.8314
2 -11.4477 3.80363 3.98339
2 -7.64936 3.8515 4.10299
2 -3.8558 3.91442 3.86082
1 -0.0847262 3.82305 3.84211
1 3.7294 3.84108 3.90184
2 7.58125 4.08645 3.88851
2 11.3647 3.9063 3.80155
1 15.2628 3.89286 3.82347
1 19 3.94397 3.9199
3 22.6146 3.81907 3.83405
3 -19.1921 7.63043 3.91403
2 -15.3269 7.58332 3.96828
1 -11.4843 7.62836 3.97035
2 -7.64395 7.71201 3.93383
2 -3.90301 7.7395 3.89591
3 -0.120383 7.76634 3.81143
2 3.8505 7.90372 3.79307
1 7.52807 7.757 3.80912
2 11.3376 7.80224 3.84339
3 15.17 7.67444 3.92477
2 18.9851 7.80369 3.90387
1 -19.0095 11.456 4.08176
1 -15.206 11.5031 3.82965
1 -11.4305 11.4916 3.89044
1 -7.60744 11.5912 3.97326
2 -3.74495 11.614 3.95496
1 0.0874802 11.6951 3.91129
1 3.88665 11.6619 3.78922
2 7.5541 11.5342 3.86722
2 11.4156 11.5366 3.8766
1 15.2786 11.5836 3.93453
1 19.0369 11.5588 3.86754
2 -15.3343 15.2227 4.01731
1 -11.3688 15.2539 4.02319
1 -7.61665 15.1876 3.91382
2 -3.80466 15.1613 3.8225
1 -0.0118641 15.3325 3.95086
2 3.69802 15.47 3.72073
3 7.64603 15.5419 3.83556
1 11.526 15.383 3.78903
3 15.2492 15.2121 3.82362
2 -11.476 19.2171 4.03603
2 -7.62344 19.2197 3.84618
3 -3.84075 19.2127 3.91279
3 -0.0675108 19.1912 3.92914
2 3.77838 19.1077 3.76857
2 7.56124 19.2594 3.63512
3 11.5249 19.0379 3.75373
2 -3.73095 22.764 3.76487
1 -0.0215015 22.8577 3.64587
2 3.87875 22.7282 3.82923
3 -0.0744257 -22.7937 7.59194
1 -11.6646 -19.0172 7.87935
2 -7.74626 -19.2227 7.60205
2 -3.95973 -19.4835 7.93271
2 0.114947 -19.2717 7.62317
1 3.82915 -19.2459 7.74333
3 7.58663 -19.1281 7.5347
3 11.3734 -18.9063 7.54734
2 -15.1789 -15.2735 7.76513
1 -11.6094 -15.3026 7.89591
1 -7.70665 -15.4466 7.80049
2 -3.90128 -15.5387 7.89169
1 -0.0310693 -15.5214 7.8225
2 3.7664 -15.298 7.71044
3 7.58747 -15.2809 7.62974
3 11.3666 -15.1424 7.43765
1 14.9881 -15.1495 7.45439
2 -19.035 -11.4845 7.78862
3 -15.3071 -11.4445 7.87035
1 -11.5143 -11.405 7.89726
2 -7.6297 -11.5166 7.91291
1 -3.81272 -11.6582 7.86745
3 -0.0447581 -11.6639 7.7315
2 3.75588 -11.4276 7.59596
2 7.44126 -11.3928 7.47198
2 11.3254 -11.4727 7.54972
2 15.02 -11.4868 7.50011
3 18.8721 -11.5159 7.60255
3 -19.0375 -7.70446 7.91899
2 -15.2046 -7.74475 7.90674
2 -11.4131 -7.69768 7.75971
2 -7.62925 -7.7288 8.10725
2 -3.74677 -7.73556 8.04399
1 -0.0139762 -7.70963 7.86886
1 3.7147 -7.68132 7.79511
3 7.63498 -7.65296 7.59445
2 11.4446 -7.66886 7.65369
2 15.0429 -7.70565 7.61831
3 18.7812 -7.82057 7.62715
2 -19.1694 -3.84986 8.00388
3 -15.1905 -3.94793 7.71763
3 -11.4479 -3.84288 7.88902
3 -7.52316 -3.91927 8.0216
2 -3.83674 -3.93463 7.91116
2 0.0587737 -3.79254 7.7773
1 3.88469 -3.83867 7.81762
2 7.51523 -3.82386 7.70391
3 11.4208 -3.75292 7.73347
2 15.2451 -3.83884 7.71569
1 18.9985 -3.88605 7.73955
2 -22.7651 0.146771 7.75924
3 -19.0345 0.0121779 7.72361
3 -15.1761 -0.027772 7.80184
3 -11.3261 0.0449988 7.85044
2 -7.63573 0.0364509 7.93364
3 -3.79105 0.101387 8.03319
1 -0.0402119 0.0352558 7.96154
3 3.84823 -0.019492 7.77435
2 7.599 0.0691157 7.79486
1 11.3275 0.0715615 7.84295
2 15.1257 -0.035085 7.59115
3 19.0911 -0.106386 7.61085
3 22.4487 0.0196135 7.64661
2 -19.1724 3.73167 7.77214
2 -15.246 3.75938 7.76761
2 -11.459 3.79577 7.84729
3 -7.56846 3.86548 7.90532
1 -3.87214 3.99704 7.93479
1 -0.0517945 3.99274 7.74197
2 3.76194 3.81451 7.71413
1 7.592 3.93307 7.82986
1 11.4347 3.91339 7.75645
2 15.1885 3.81394 7.68861
2 18.9543 3.77527 7.66263
2 -18.9916 7.60287 7.76789
1 -15.1763 7.51437 7.65113
2 -11.3768 7.65289 7.98364
2 -7.59266 7.82745 7.82608
3 -3.82413 7.83108 7.82593
2 -0.0768267 7.87671 7.7436
2 3.7195 7.79822 7.78718
1 7.6598 7.82323 7.74486
2 11.3144 7.7199 7.71445
2 15.1926 7.77315 7.70503
2 18.8234 7.77714 7.82596
3 -18.9441 11.3165 7.75864
3 -15.3127 11.5599 7.80435
2 -11.3737 11.6383 7.85935
2 -7.7351 11.5174 7.80188
2 -3.79621 11.4396 7.59901
2 0.00810455 11.6896 7.88554
3 3.7005 11.6851 7.8578
2 7.55897 11.561 7.5387
2 11.2693 11.4524 7.61277
3 15.1649 11.4452 7.81454
3 18.7656 11.3835 7.75558
2 -15.2303 15.3194 7.94992
3 -11.2985 15.249 7.69698
1 -7.57587 15.3204 7.79848
1 -3.8367 15.451 7.79024
2 -0.186253 15.5268 7.691
2 3.91215 15.3873 7.71587
3 7.53064 15.3599 7.57211
2 11.455 15.3601 7.53756
2 15.0988 15.3252 7.59081
3 -11.2995 19.0015 7.68265
1 -7.74297 19.2012 7.79554
3 -4.00098 19.3523 7.91654
1 0.00363678 19.365 7.65391
2 3.87619 19.3699 7.74093
2 7.70757 19.2515 7.60852
3 11.4167 18.7677 7.70193
1 0.000615746 22.743 7.50356
2 -7.85536 -19.2411 11.6021
2 -4.05976 -19.477 12.0281
2 0.245745 -19.3343 11.5265
1 3.88608 -19.0451 11.4986
3 7.48067 -18.9824 11.365
1 -11.62 -15.4837 11.8274
2 -7.72117 -15.3926 11.7278
2 -3.90438 -15.3873 11.717
2 -0.130835 -15.5731 11.6121
1 3.77615 -15.3251 11.5291
2 7.64265 -15.1833 11.424
1 11.4432 -15.3114 11.5944
3 -15.2808 -11.7495 11.6698
2 -11.3992 -11.2416 11.642
2 -7.72219 -11.53 11.7963
2 -3.77591 -11.6437 11.788
2 -0.129522 -11.702 11.6876
1 3.83349 -11.6012 11.6094
2 7.78792 -11.5191 11.5297
1 11.5317 -11.4716 11.4274
2 15.238 -11.6648 11.3241
3 -18.9761 -7.66373 11.3953
2 -15.3503 -7.53632 11.7702
1 -11.508 -7.66721 11.7495
2 -7.55565 -7.85952 11.6922
1 -3.88481 -7.78327 11.8215
1 -0.0307352 -7.78076 11.7002
1 3.6862 -7.80712 11.8718
1 7.5431 -7.71763 11.7226
1 11.3487 -7.64938 11.5535
2 15.188 -7.77748 11.4779
3 18.9465 -7.69401 11.5257
1 -19.1107 -3.74235 11.5979
1 -15.2723 -3.69589 11.771
1 -11.4607 -3.75532 11.656
1 -7.57503 -3.8827 11.8332
2 -3.90729 -3.79498 11.875
2 -0.0136995 -3.81974 11.7815
1 3.76769 -3.75564 11.7446
1 7.46468 -3.84053 11.6642
2 11.3859 -3.84324 11.5214
2 15.3184 -3.79232 11.6224
3 19 -3.89069 11.6042
3 -19.2174 0.129405 11.6132
2 -15.2028 0.0295381 11.7092
2 -11.5108 0.046493 11.5581
2 -7.68473 0.0539393 11.6119
1 -3.90957 0.0270709 11.8092
3 -0.108735 0.0634515 11.8431
1 3.62398 0.100101 11.639
2 7.4689 0.0264779 11.6702
2 11.5456 -0.0550136 11.6005
1 15.2733 0.0521038 11.5577
1 19.2052 0.0525599 11.9515
3 -19.1915 3.95552 11.5705
3 -15.3225 3.79214 11.5793
3 -11.4575 3.80245 11.7122
1 -7.681 3.85064 11.7631
2 -3.84683 4.01301 11.6621
2 -0.139556 3.9138 11.6249
1 3.78834 3.88417 11.8451
1 7.50775 3.79609 11.5815
2 11.2954 3.88011 11.5188
2 15.1539 3.89077 11.4972
1 19.0149 3.99676 11.6398
1 -18.9958 7.54188 11.5161
1 -15.3207 7.72372 11.5734
2 -11.4377 7.69726 11.5424
3 -7.54348 7.6244 11.6761
2 -3.88163 7.7655 11.8041
2 -0.0739918 7.82713 11.8738
2 3.56288 7.77187 11.7933
3 7.66224 7.85951 11.6172
2 11.3209 7.75511 11.3572
2 15.1579 7.65014 11.3279
2 18.9504 7.64239 11.5501
2 -15.3829 11.5091 11.6884
2 -11.5385 11.5467 11.5642
1 -7.62358 11.5711 11.6705
1 -3.85491 11.6239 11.813
1 -0.188901 11.5614 11.8002
2 3.6153 11.6552 11.8139
1 7.46119 11.5691 11.6017
2 11.3196 11.4779 11.5402
1 15.171 11.4261 11.3708
3 -11.4911 15.2902 11.5371
3 -7.79446 15.4514 11.7268
2 -4.06879 15.4185 11.6859
2 -0.0974538 15.6015 11.5572
1 3.69683 15.4277 11.6894
2 7.61848 15.5507 11.838
1 11.4991 15.3102 11.464
3 -7.84564 19.1396 11.541
3 -3.99256 19.241 11.6765
3 -0.0430033 19.2382 11.5415
1 3.92426 19.5986 11.7772
2 7.75863 18.9801 11.6369
3 -7.67113 -15.2759 15.5959
1 -4.10312 -15.6962 15.5868
2 0.0262036 -15.5658 15.3238
1 3.83806 -15.7367 15.6359
1 7.90611 -15.4172 15.3059
1 -11.4497 -11.5408 15.4428
3 -7.75859 -11.5086 15.5216
2 -3.887 -11.6999 15.4304
2 -0.0983056 -11.8815 15.5857
1 3.81671 -11.7318 15.4764
3 7.55168 -11.5717 15.3968
3 11.5485 -11.5167 15.2942
3 -15.2209 -7.90502 15.3049
2 -11.6411 -7.62377 15.3764
1 -7.75989 -7.7731 15.5065
2 -3.81144 -7.84342 15.5715
2 -0.100924 -7.876 15.6723
2 3.78529 -7.83303 15.5123
2 7.63408 -7.74585 15.5494
2 11.5474 -7.67817 15.4004
3 15.2691 -7.84039 15.0975
1 -15.8182 -4.13105 15.8699
2 -11.4909 -3.90969 15.5023
3 -7.66804 -3.74709 15.5795
2 -3.95244 -3.77105 15.6374
3 -0.0684525 -3.86603 15.6494
2 3.7325 -3.88965 15.6424
2 7.53815 -3.99178 15.4988
2 11.5127 -3.84103 15.4975
1 15.2818 -3.92866 15.3552
2 -15.3488 -0.107326 15.5825
2 -11.4876 0.0511682 15.6002
3 -7.72706 0.0557596 15.4719
2 -4.01464 -0.0827121 15.7218
1 -0.0642548 0.0982292 15.6154
3 3.74009 0.0569637 15.4795
2 7.54926 -0.0175955 15.3287
1 11.4327 -0.121747 15.4813
2 15.2558 -0.00866458 15.3442
3 -15.3498 4.00399 15.2908
1 -11.5337 3.79633 15.5402
2 -7.72278 3.82341 15.5431
2 -4.0143 3.87931 15.6413
1 -0.204187 3.91591 15.6736
3 3.77722 3.88871 15.4879
2 7.65977 3.78742 15.338
2 11.3707 3.88735 15.2866
3 15.1136 3.91097 15.3181
3 -15.3792 7.66229 15.2361
1 -11.4754 7.61782 15.5071
2 -7.67259 7.67666 15.5727
3 -3.84983 7.78932 15.5175
2 -0.163787 7.83402 15.6556
2 3.79416 7.83415 15.6016
2 7.65799 7.72286 15.4372
2 11.3425 7.76195 15.2494
2 15.0487 7.8109 15.1847
2 -11.5842 11.5341 15.3474
2 -7.73951 11.6221 15.4588
2 -3.98596 11.5401 15.4823
2 -0.326802 11.6943 15.6721
1 3.72345 11.7108 15.648
1 7.55894 11.6454 15.3971
3 11.3957 11.3509 15.1795
1 -8.09884 15.5133 15.5103
1 -4.13619 15.7933 15.7059
2 0.0325892 15.4188 15.5391
3 3.63722 15.5825 15.6918
1 8.09548 15.6291 15.5336
2 -7.74859 -11.4917 19.1787
3 -3.89005 -11.7992 19.1964
3 -0.0311774 -11.8721 19.2304
2 3.86846 -11.6006 19.1188
1 7.75982 -11.5938 19.0862
3 -11.546 -7.84982 18.9184
1 -7.7788 -7.55743 19.2519
3 -3.87598 -7.83552 19.1872
1 -0.0431472 -7.8435 19.3675
2 3.84603 -7.90094 19.1241
2 7.74804 -7.91461 19.2439
2 11.7186 -7.69586 19.3588
3 -11.462 -3.82562 19.1226
2 -7.65001 -3.7632 19.4186
1 -3.8296 -3.93577 19.3229
2 0.0656288 -4.02334 19.309
2 3.82872 -3.77858 19.3674
3 7.65145 -3.88838 19.2701
2 11.4913 -3.90878 19.0939
2 -12.0167 -0.00573834 19.5124
3 -7.70586 0.0627515 19.4331
2 -3.97408 0.0622198 19.4616
1 -0.0433453 0.0291171 19.3886
2 3.90711 0.096266 19.3654
1 7.51574 -0.0839924 19.2851
3 11.5382 0.0212204 19.0656
2 -11.5855 3.93919 19.2786
2 -7.73072 3.89331 19.2608
2 -3.99456 3.86073 19.5083
2 -0.131573 3.87604 19.3363
2 3.81924 3.84512 19.3873
1 7.78924 3.82773 19.1758
3 11.4163 3.65781 19.0617
1 -11.6181 7.7625 18.9673
2 -7.7141 7.75824 19.2793
3 -4.02821 7.73121 19.3745
1 -0.0521194 7.7832 19.533
2 4.05667 8.0003 19.5249
2 7.85047 7.49652 19.2127
3 11.3999 7.7046 18.9048
2 -7.84369 11.4564 19.1874
2 -4.09492 11.9817 19.3443
2 -0.215805 11.8053 19.7106
3 3.5259 11.5695 19.1898
3 7.69968 11.801 19.0754
3 0.000388836 -7.83627 22.5992
3 -3.74222 -4.11551 22.9477
2 0.179872 -3.93306 22.9489
3 4.01123 -4.11736 22.7275
1 -7.6708 0.244618 22.8862
2 -3.81885 -0.108748 23.0158
2 0.0662949 0.0512208 22.9293
1 3.77547 0.162329 22.8638
2 7.79438 -0.077889 22.9335
1 -4.08757 3.89292 23.0838
2 -0.0525673 3.85855 23.0673
1 3.85949 4.08537 22.6967
3 -0.184129 7.46564 22.88
2 -5.85216 -5.79402 -22.7588
1 -1.89369 -5.66444 -22.9247
2 2.05582 -5.54088 -23.0312
2 6.0042 -5.61666 -23.0586
1 -5.48649 -1.88552 -22.8971
2 -1.57949 -1.67478 -23.0202
3 2.07573 -1.79946 -23.0554
3 6.04374 -1.76166 -22.9032
2 -5.64179 2.01982 -22.6951
2 -1.80674 1.96285 -23.1575
1 2.09974 2.07351 -22.8934
2 6.04345 1.80213 -22.8659
3 -5.49739 5.7984 -22.7985
2 -1.82643 5.84388 -22.9561
3 2.01921 5.66458 -22.9686
2 5.84076 5.72485 -22.9902
1 -5.80692 -13.2291 -18.9659
3 -1.88301 -13.0468 -19.1797
1 1.949 -13.156 -19.1636
2 6.14026 -13.3583 -19.1311
1 -9.72239 -9.74581 -19.0666
2 -5.666 -9.48563 -19.243
3 -1.7544 -9.5045 -19.2188
3 2.10467 -9.53521 -19.4518
1 5.90988 -9.66279 -19.4853
2 9.63184 -9.37813 -19.328
2 -13.2945 -5.73468 -18.9477
2 -9.71647 -5.80421 -19.0184
1 -5.71955 -5.7522 -19.1638
2 -1.98457 -5.70728 -19.2943
2 2.09905 -5.54022 -19.4087
2 5.89727 -5.74068 -19.4266