LAMMPS DATA FOR MEAM SIMULATION

   4321   atoms
      3   atom types

  -33.55   33.55   xlo xhi
  -33.55   33.55   ylo yhi
  -33.55   33.55   zlo zhi

 Atoms

     1   3     0.00000    -7.84889   -23.54666
     2   1    -3.92444    -3.92444   -23.54666
     3   2     0.00000    -3.92444   -23.54666
     4   3     3.92444    -3.92444   -23.54666
     5   3    -7.84889     0.00000   -23.54666
     6   3    -3.92444     0.00000   -23.54666
     7   1     0.00000     0.00000   -23.54666
     8   3     3.92444     0.00000   -23.54666
     9   3     7.84889     0.00000   -23.54666
    10   3    -3.92444     3.92444   -23.54666
    11   2     0.00000     3.92444   -23.54666
    12   1     3.92444     3.92444   -23.54666
    13   3     0.00000     7.84889   -23.54666
    14   2    -7.84889   -11.77333   -19.62221
    15   3    -3.92444   -11.77333   -19.62221
    16   3     0.00000   -11.77333   -19.62221
    17   2     3.92444   -11.77333   -19.62221
    18   3     7.84889   -11.77333   -19.62221
    19   3   -11.77333    -7.84889   -19.62221
    20   2    -7.84889    -7.84889   -19.62221
    21   1    -3.92444    -7.84889   -19.62221
    22   2     0.00000    -7.84889   -19.62221
    23   2     3.92444    -7.84889   -19.62221
    24   3     7.84889    -7.84889   -19.62221
    25   2    11.77333    -7.84889   -19.62221
    26   3   -11.77333    -3.92444   -19.62221
    27   2    -7.84889    -3.92444   -19.62221
    28   3    -3.92444    -3.92444   -19.62221
    29   1     0.00000    -3.92444   -19.62221
    30   3     3.92444    -3.92444   -19.62221
    31   1     7.84889    -3.92444   -19.62221
    32   3    11.77333    -3.92444   -19.62221
    33   3   -11.77333     0.00000   -19.62221
    34   1    -7.84889     0.00000   -19.62221
    35   1    -3.92444     0.00000   -19.62221
    36   2     0.00000     0.00000   -19.62221
    37   1     3.92444     0.00000   -19.62221
    38   2     7.84889     0.00000   -19.62221
    39   2    11.77333     0.00000   -19.62221
    40   1   -11.77333     3.92444   -19.62221
    41   2    -7.84889     3.92444   -19.62221
    42   2    -3.92444     3.92444   -19.62221
    43   1     0.00000     3.92444   -19.62221
    44   1     3.92444     3.92444   -19.62221
    45   1     7.84889     3.92444   -19.62221
    46   2    11.77333     3.92444   -19.62221
    47   3   -11.77333     7.84889   -19.62221
    48   2    -7.84889     7.84889   -19.62221
    49   2    -3.92444     7.84889   -19.62221
    50   2     0.00000     7.84889   -19.62221
    51   1     3.92444     7.84889   -19.62221
    52   3     7.84889     7.84889   -19.62221
    53   3    11.77333     7.84889   -19.62221
    54   3    -7.84889    11.77333   -19.62221
    55   3    -3.92444    11.77333   -19.62221
    56   2     0.00000    11.77333   -19.62221
    57   2     3.92444    11.77333   -19.62221
    58   2     7.84889    11.77333   -19.62221
    59   3    -7.84889   -15.69777   -15.69777
    60   2    -3.92444   -15.69777   -15.69777
    61   3     0.00000   -15.69777   -15.69777
    62   2     3.92444   -15.69777   -15.69777
    63   1     7.84889   -15.69777   -15.69777
    64   1   -11.77333   -11.77333   -15.69777
    65   2    -7.84889   -11.77333   -15.69777
    66   1    -3.92444   -11.77333   -15.69777
    67   1     0.00000   -11.77333   -15.69777
    68   2     3.92444   -11.77333   -15.69777
    69   1     7.84889   -11.77333   -15.69777
    70   1    11.77333   -11.77333   -15.69777
    71   2   -15.69777    -7.84889   -15.69777
    72   3   -11.77333    -7.84889   -15.69777
    73   3    -7.84889    -7.84889   -15.69777
    74   1    -3.92444    -7.84889   -15.69777
    75   1     0.00000    -7.84889   -15.69777
    76   1     3.92444    -7.84889   -15.69777
    77   2     7.84889    -7.84889   -15.69777
    78   1    11.77333    -7.84889   -15.69777
    79   1    15.69777    -7.84889   -15.69777
    80   1   -15.69777    -3.92444   -15.69777
    81   2   -11.77333    -3.92444   -15.69777
    82   2    -7.84889    -3.92444   -15.69777
    83   1    -3.92444    -3.92444   -15.69777
    84   2     0.00000    -3.92444   -15.69777
    85   3     3.92444    -3.92444   -15.69777
    86   2     7.84889    -3.92444   -15.69777
    87   2    11.77333    -3.92444   -15.69777
    88   2    15.69777    -3.92444   -15.69777
    89   1   -15.69777     0.00000   -15.69777
    90   3   -11.77333     0.00000   -15.69777
    91   2    -7.84889     0.00000   -15.69777
    92   2    -3.92444     0.00000   -15.69777
    93   2     0.00000     0.00000   -15.69777
    94   1     3.92444     0.00000   -15.69777
    95   1     7.84889     0.00000   -15.69777
    96   2    11.77333     0.00000   -15.69777
    97   3    15.69777     0.00000   -15.69777
    98   3   -15.69777     3.92444   -15.69777
    99   2   -11.77333     3.92444   -15.69777
   100   2    -7.84889     3.92444   -15.69777
   101   2    -3.92444     3.92444   -15.69777
   102   1     0.00000     3.92444   -15.69777
   103   3     3.92444     3.92444   -15.69777
   104   2     7.84889     3.92444   -15.69777
   105   1    11.77333     3.92444   -15.69777
   106   3    15.69777     3.92444   -15.69777
   107   2   -15.69777     7.84889   -15.69777
   108   2   -11.77333     7.84889   -15.69777
   109   2    -7.84889     7.84889   -15.69777
   110   2    -3.92444     7.84889   -15.69777
   111   3     0.00000     7.84889   -15.69777
   112   1     3.92444     7.84889   -15.69777
   113   1     7.84889     7.84889   -15.69777
   114   1    11.77333     7.84889   -15.69777
   115   1    15.69777     7.84889   -15.69777
   116   3   -11.77333    11.77333   -15.69777
   117   2    -7.84889    11.77333   -15.69777
   118   2    -3.92444    11.77333   -15.69777
   119   3     0.00000    11.77333   -15.69777
   120   1     3.92444    11.77333   -15.69777
   121   2     7.84889    11.77333   -15.69777
   122   2    11.77333    11.77333   -15.69777
   123   2    -7.84889    15.69777   -15.69777
   124   1    -3.92444    15.69777   -15.69777
   125   2     0.00000    15.69777   -15.69777
   126   2     3.92444    15.69777   -15.69777
   127   3     7.84889    15.69777   -15.69777
   128   2    -7.84889   -19.62221   -11.77333
   129   2    -3.92444   -19.62221   -11.77333
   130   3     0.00000   -19.62221   -11.77333
   131   2     3.92444   -19.62221   -11.77333
   132   2     7.84889   -19.62221   -11.77333
   133   3   -11.77333   -15.69777   -11.77333
   134   2    -7.84889   -15.69777   -11.77333
   135   1    -3.92444   -15.69777   -11.77333
   136   2     0.00000   -15.69777   -11.77333
   137   3     3.92444   -15.69777   -11.77333
   138   3     7.84889   -15.69777   -11.77333
   139   3    11.77333   -15.69777   -11.77333
   140   1   -15.69777   -11.77333   -11.77333
   141   3   -11.77333   -11.77333   -11.77333
   142   1    -7.84889   -11.77333   -11.77333
   143   2    -3.92444   -11.77333   -11.77333
   144   3     0.00000   -11.77333   -11.77333
   145   2     3.92444   -11.77333   -11.77333
   146   2     7.84889   -11.77333   -11.77333
   147   2    11.77333   -11.77333   -11.77333
   148   2    15.69777   -11.77333   -11.77333
   149   1   -19.62221    -7.84889   -11.77333
   150   2   -15.69777    -7.84889   -11.77333
   151   2   -11.77333    -7.84889   -11.77333
   152   2    -7.84889    -7.84889   -11.77333
   153   1    -3.92444    -7.84889   -11.77333
   154   2     0.00000    -7.84889   -11.77333
   155   1     3.92444    -7.84889   -11.77333
   156   2     7.84889    -7.84889   -11.77333
   157   1    11.77333    -7.84889   -11.77333
   158   3    15.69777    -7.84889   -11.77333
   159   3    19.62221    -7.84889   -11.77333
   160   1   -19.62221    -3.92444   -11.77333
   161   3   -15.69777    -3.92444   -11.77333
   162   1   -11.77333    -3.92444   -11.77333
   163   1    -7.84889    -3.92444   -11.77333
   164   3    -3.92444    -3.92444   -11.77333
   165   2     0.00000    -3.92444   -11.77333
   166   2     3.92444    -3.92444   -11.77333
   167   2     7.84889    -3.92444   -11.77333
   168   2    11.77333    -3.92444   -11.77333
   169   3    15.69777    -3.92444   -11.77333
   170   2    19.62221    -3.92444   -11.77333
   171   1   -19.62221     0.00000   -11.77333
   172   2   -15.69777     0.00000   -11.77333
   173   3   -11.77333     0.00000   -11.77333
   174   2    -7.84889     0.00000   -11.77333
   175   3    -3.92444     0.00000   -11.77333
   176   2     0.00000     0.00000   -11.77333
   177   1     3.92444     0.00000   -11.77333
   178   1     7.84889     0.00000   -11.77333
   179   2    11.77333     0.00000   -11.77333
   180   2    15.69777     0.00000   -11.77333
   181   3    19.62221     0.00000   -11.77333
   182   2   -19.62221     3.92444   -11.77333
   183   2   -15.69777     3.92444   -11.77333
   184   2   -11.77333     3.92444   -11.77333
   185   2    -7.84889     3.92444   -11.77333
   186   2    -3.92444     3.92444   -11.77333
   187   1     0.00000     3.92444   -11.77333
   188   3     3.92444     3.92444   -11.77333
   189   1     7.84889     3.92444   -11.77333
   190   1    11.77333     3.92444   -11.77333
   191   1    15.69777     3.92444   -11.77333
   192   3    19.62221     3.92444   -11.77333
   193   3   -19.62221     7.84889   -11.77333
   194   3   -15.69777     7.84889   -11.77333
   195   2   -11.77333     7.84889   -11.77333
   196   2    -7.84889     7.84889   -11.77333
   197   2    -3.92444     7.84889   -11.77333
   198   2     0.00000     7.84889   -11.77333
   199   2     3.92444     7.84889   -11.77333
   200   2     7.84889     7.84889   -11.77333
   201   1    11.77333     7.84889   -11.77333
   202   3    15.69777     7.84889   -11.77333
   203   2    19.62221     7.84889   -11.77333
   204   3   -15.69777    11.77333   -11.77333
   205   2   -11.77333    11.77333   -11.77333
   206   3    -7.84889    11.77333   -11.77333
   207   1    -3.92444    11.77333   -11.77333
   208   2     0.00000    11.77333   -11.77333
   209   1     3.92444    11.77333   -11.77333
   210   2     7.84889    11.77333   -11.77333
   211   2    11.77333    11.77333   -11.77333
   212   3    15.69777    11.77333   -11.77333
   213   1   -11.77333    15.69777   -11.77333
   214   2    -7.84889    15.69777   -11.77333
   215   2    -3.92444    15.69777   -11.77333
   216   1     0.00000    15.69777   -11.77333
   217   1     3.92444    15.69777   -11.77333
   218   2     7.84889    15.69777   -11.77333
   219   3    11.77333    15.69777   -11.77333
   220   1    -7.84889    19.62221   -11.77333
   221   1    -3.92444    19.62221   -11.77333
   222   1     0.00000    19.62221   -11.77333
   223   2     3.92444    19.62221   -11.77333
   224   2     7.84889    19.62221   -11.77333
   225   3     0.00000   -23.54666    -7.84889
   226   3   -11.77333   -19.62221    -7.84889
   227   3    -7.84889   -19.62221    -7.84889
   228   2    -3.92444   -19.62221    -7.84889
   229   1     0.00000   -19.62221    -7.84889
   230   2     3.92444   -19.62221    -7.84889
   231   3     7.84889   -19.62221    -7.84889
   232   1    11.77333   -19.62221    -7.84889
   233   3   -15.69777   -15.69777    -7.84889
   234   2   -11.77333   -15.69777    -7.84889
   235   2    -7.84889   -15.69777    -7.84889
   236   2    -3.92444   -15.69777    -7.84889
   237   3     0.00000   -15.69777    -7.84889
   238   2     3.92444   -15.69777    -7.84889
   239   2     7.84889   -15.69777    -7.84889
   240   2    11.77333   -15.69777    -7.84889
   241   3    15.69777   -15.69777    -7.84889
   242   2   -19.62221   -11.77333    -7.84889
   243   2   -15.69777   -11.77333    -7.84889
   244   1   -11.77333   -11.77333    -7.84889
   245   1    -7.84889   -11.77333    -7.84889
   246   2    -3.92444   -11.77333    -7.84889
   247   3     0.00000   -11.77333    -7.84889
   248   2     3.92444   -11.77333    -7.84889
   249   1     7.84889   -11.77333    -7.84889
   250   2    11.77333   -11.77333    -7.84889
   251   1    15.69777   -11.77333    -7.84889
   252   3    19.62221   -11.77333    -7.84889
   253   3   -19.62221    -7.84889    -7.84889
   254   1   -15.69777    -7.84889    -7.84889
   255   2   -11.77333    -7.84889    -7.84889
   256   2    -7.84889    -7.84889    -7.84889
   257   1    -3.92444    -7.84889    -7.84889
   258   1     0.00000    -7.84889    -7.84889
   259   1     3.92444    -7.84889    -7.84889
   260   1     7.84889    -7.84889    -7.84889
   261   2    11.77333    -7.84889    -7.84889
   262   3    15.69777    -7.84889    -7.84889
   263   2    19.62221    -7.84889    -7.84889
   264   2   -19.62221    -3.92444    -7.84889
   265   1   -15.69777    -3.92444    -7.84889
   266   1   -11.77333    -3.92444    -7.84889
   267   2    -7.84889    -3.92444    -7.84889
   268   2    -3.92444    -3.92444    -7.84889
   269   2     0.00000    -3.92444    -7.84889
   270   2     3.92444    -3.92444    -7.84889
   271   2     7.84889    -3.92444    -7.84889
   272   2    11.77333    -3.92444    -7.84889
   273   1    15.69777    -3.92444    -7.84889
   274   2    19.62221    -3.92444    -7.84889
   275   2   -23.54666     0.00000    -7.84889
   276   2   -19.62221     0.00000    -7.84889
   277   1   -15.69777     0.00000    -7.84889
   278   2   -11.77333     0.00000    -7.84889
   279   1    -7.84889     0.00000    -7.84889
   280   1    -3.92444     0.00000    -7.84889
   281   2     0.00000     0.00000    -7.84889
   282   1     3.92444     0.00000    -7.84889
   283   2     7.84889     0.00000    -7.84889
   284   1    11.77333     0.00000    -7.84889
   285   1    15.69777     0.00000    -7.84889
   286   1    19.62221     0.00000    -7.84889
   287   3    23.54666     0.00000    -7.84889
   288   2   -19.62221     3.92444    -7.84889
   289   1   -15.69777     3.92444    -7.84889
   290   3   -11.77333     3.92444    -7.84889
   291   3    -7.84889     3.92444    -7.84889
   292   3    -3.92444     3.92444    -7.84889
   293   2     0.00000     3.92444    -7.84889
   294   2     3.92444     3.92444    -7.84889
   295   1     7.84889     3.92444    -7.84889
   296   1    11.77333     3.92444    -7.84889
   297   1    15.69777     3.92444    -7.84889
   298   2    19.62221     3.92444    -7.84889
   299   1   -19.62221     7.84889    -7.84889
   300   2   -15.69777     7.84889    -7.84889
   301   2   -11.77333     7.84889    -7.84889
   302   1    -7.84889     7.84889    -7.84889
   303   2    -3.92444     7.84889    -7.84889
   304   2     0.00000     7.84889    -7.84889
   305   2     3.92444     7.84889    -7.84889
   306   2     7.84889     7.84889    -7.84889
   307   1    11.77333     7.84889    -7.84889
   308   3    15.69777     7.84889    -7.84889
   309   2    19.62221     7.84889    -7.84889
   310   3   -19.62221    11.77333    -7.84889
   311   2   -15.69777    11.77333    -7.84889
   312   2   -11.77333    11.77333    -7.84889
   313   1    -7.84889    11.77333    -7.84889
   314   1    -3.92444    11.77333    -7.84889
   315   1     0.00000    11.77333    -7.84889
   316   2     3.92444    11.77333    -7.84889
   317   1     7.84889    11.77333    -7.84889
   318   3    11.77333    11.77333    -7.84889
   319   1    15.69777    11.77333    -7.84889
   320   2    19.62221    11.77333    -7.84889
   321   3   -15.69777    15.69777    -7.84889
   322   1   -11.77333    15.69777    -7.84889
   323   2    -7.84889    15.69777    -7.84889
   324   1    -3.92444    15.69777    -7.84889
   325   2     0.00000    15.69777    -7.84889
   326   1     3.92444    15.69777    -7.84889
   327   2     7.84889    15.69777    -7.84889
   328   2    11.77333    15.69777    -7.84889
   329   2    15.69777    15.69777    -7.84889
   330   1   -11.77333    19.62221    -7.84889
   331   2    -7.84889    19.62221    -7.84889
   332   2    -3.92444    19.62221    -7.84889
   333   3     0.00000    19.62221    -7.84889
   334   2     3.92444    19.62221    -7.84889
   335   2     7.84889    19.62221    -7.84889
   336   3    11.77333    19.62221    -7.84889
   337   1     0.00000    23.54666    -7.84889
   338   3    -3.92444   -23.54666    -3.92444
   339   3     0.00000   -23.54666    -3.92444
   340   3     3.92444   -23.54666    -3.92444
   341   3   -11.77333   -19.62221    -3.92444
   342   1    -7.84889   -19.62221    -3.92444
   343   2    -3.92444   -19.62221    -3.92444
   344   2     0.00000   -19.62221    -3.92444
   345   2     3.92444   -19.62221    -3.92444
   346   1     7.84889   -19.62221    -3.92444
   347   2    11.77333   -19.62221    -3.92444
   348   2   -15.69777   -15.69777    -3.92444
   349   2   -11.77333   -15.69777    -3.92444
   350   1    -7.84889   -15.69777    -3.92444
   351   1    -3.92444   -15.69777    -3.92444
   352   2     0.00000   -15.69777    -3.92444
   353   1     3.92444   -15.69777    -3.92444
   354   1     7.84889   -15.69777    -3.92444
   355   1    11.77333   -15.69777    -3.92444
   356   1    15.69777   -15.69777    -3.92444
   357   3   -19.62221   -11.77333    -3.92444
   358   2   -15.69777   -11.77333    -3.92444
   359   2   -11.77333   -11.77333    -3.92444
   360   2    -7.84889   -11.77333    -3.92444
   361   2    -3.92444   -11.77333    -3.92444
   362   2     0.00000   -11.77333    -3.92444
   363   1     3.92444   -11.77333    -3.92444
   364   2     7.84889   -11.77333    -3.92444
   365   1    11.77333   -11.77333    -3.92444
   366   2    15.69777   -11.77333    -3.92444
   367   1    19.62221   -11.77333    -3.92444
   368   2   -19.62221    -7.84889    -3.92444
   369   2   -15.69777    -7.84889    -3.92444
   370   2   -11.77333    -7.84889    -3.92444
   371   2    -7.84889    -7.84889    -3.92444
   372   2    -3.92444    -7.84889    -3.92444
   373   1     0.00000    -7.84889    -3.92444
   374   2     3.92444    -7.84889    -3.92444
   375   2     7.84889    -7.84889    -3.92444
   376   2    11.77333    -7.84889    -3.92444
   377   2    15.69777    -7.84889    -3.92444
   378   2    19.62221    -7.84889    -3.92444
   379   2   -23.54666    -3.92444    -3.92444
   380   2   -19.62221    -3.92444    -3.92444
   381   2   -15.69777    -3.92444    -3.92444
   382   2   -11.77333    -3.92444    -3.92444
   383   1    -7.84889    -3.92444    -3.92444
   384   1    -3.92444    -3.92444    -3.92444
   385   1     0.00000    -3.92444    -3.92444
   386   2     3.92444    -3.92444    -3.92444
   387   3     7.84889    -3.92444    -3.92444
   388   1    11.77333    -3.92444    -3.92444
   389   2    15.69777    -3.92444    -3.92444
   390   3    19.62221    -3.92444    -3.92444
   391   2    23.54666    -3.92444    -3.92444
   392   2   -23.54666     0.00000    -3.92444
   393   3   -19.62221     0.00000    -3.92444
   394   2   -15.69777     0.00000    -3.92444
   395   2   -11.77333     0.00000    -3.92444
   396   1    -7.84889     0.00000    -3.92444
   397   1    -3.92444     0.00000    -3.92444
   398   1     0.00000     0.00000    -3.92444
   399   2     3.92444     0.00000    -3.92444
   400   1     7.84889     0.00000    -3.92444
   401   1    11.77333     0.00000    -3.92444
   402   2    15.69777     0.00000    -3.92444
   403   2    19.62221     0.00000    -3.92444
   404   1    23.54666     0.00000    -3.92444
   405   1   -23.54666     3.92444    -3.92444
   406   2   -19.62221     3.92444    -3.92444
   407   2   -15.69777     3.92444    -3.92444
   408   1   -11.77333     3.92444    -3.92444
   409   3    -7.84889     3.92444    -3.92444
   410   2    -3.92444     3.92444    -3.92444
   411   2     0.00000     3.92444    -3.92444
   412   2     3.92444     3.92444    -3.92444
   413   2     7.84889     3.92444    -3.92444
   414   1    11.77333     3.92444    -3.92444
   415   2    15.69777     3.92444    -3.92444
   416   2    19.62221     3.92444    -3.92444
   417   3    23.54666     3.92444    -3.92444
   418   2   -19.62221     7.84889    -3.92444
   419   2   -15.69777     7.84889    -3.92444
   420   2   -11.77333     7.84889    -3.92444
   421   3    -7.84889     7.84889    -3.92444
   422   3    -3.92444     7.84889    -3.92444
   423   2     0.00000     7.84889    -3.92444
   424   1     3.92444     7.84889    -3.92444
   425   2     7.84889     7.84889    -3.92444
   426   1    11.77333     7.84889    -3.92444
   427   1    15.69777     7.84889    -3.92444
   428   2    19.62221     7.84889    -3.92444
   429   2   -19.62221    11.77333    -3.92444
   430   2   -15.69777    11.77333    -3.92444
   431   2   -11.77333    11.77333    -3.92444
   432   2    -7.84889    11.77333    -3.92444
   433   1    -3.92444    11.77333    -3.92444
   434   2     0.00000    11.77333    -3.92444
   435   1     3.92444    11.77333    -3.92444
   436   2     7.84889    11.77333    -3.92444
   437   1    11.77333    11.77333    -3.92444
   438   3    15.69777    11.77333    -3.92444
   439   3    19.62221    11.77333    -3.92444
   440   2   -15.69777    15.69777    -3.92444
   441   1   -11.77333    15.69777    -3.92444
   442   2    -7.84889    15.69777    -3.92444
   443   3    -3.92444    15.69777    -3.92444
   444   1     0.00000    15.69777    -3.92444
   445   2     3.92444    15.69777    -3.92444
   446   2     7.84889    15.69777    -3.92444
   447   2    11.77333    15.69777    -3.92444
   448   2    15.69777    15.69777    -3.92444
   449   3   -11.77333    19.62221    -3.92444
   450   2    -7.84889    19.62221    -3.92444
   451   2    -3.92444    19.62221    -3.92444
   452   2     0.00000    19.62221    -3.92444
   453   2     3.92444    19.62221    -3.92444
   454   2     7.84889    19.62221    -3.92444
   455   2    11.77333    19.62221    -3.92444
   456   2    -3.92444    23.54666    -3.92444
   457   1     0.00000    23.54666    -3.92444
   458   1     3.92444    23.54666    -3.92444
   459   3    -7.84889   -23.54666     0.00000
   460   2    -3.92444   -23.54666     0.00000
   461   3     0.00000   -23.54666     0.00000
   462   3     3.92444   -23.54666     0.00000
   463   3     7.84889   -23.54666     0.00000
   464   1   -11.77333   -19.62221     0.00000
   465   3    -7.84889   -19.62221     0.00000
   466   3    -3.92444   -19.62221     0.00000
   467   1     0.00000   -19.62221     0.00000
   468   2     3.92444   -19.62221     0.00000
   469   3     7.84889   -19.62221     0.00000
   470   1    11.77333   -19.62221     0.00000
   471   2   -15.69777   -15.69777     0.00000
   472   1   -11.77333   -15.69777     0.00000
   473   1    -7.84889   -15.69777     0.00000
   474   2    -3.92444   -15.69777     0.00000
   475   3     0.00000   -15.69777     0.00000
   476   3     3.92444   -15.69777     0.00000
   477   2     7.84889   -15.69777     0.00000
   478   2    11.77333   -15.69777     0.00000
   479   3    15.69777   -15.69777     0.00000
   480   2   -19.62221   -11.77333     0.00000
   481   1   -15.69777   -11.77333     0.00000
   482   1   -11.77333   -11.77333     0.00000
   483   1    -7.84889   -11.77333     0.00000
   484   2    -3.92444   -11.77333     0.00000
   485   1     0.00000   -11.77333     0.00000
   486   3     3.92444   -11.77333     0.00000
   487   1     7.84889   -11.77333     0.00000
   488   2    11.77333   -11.77333     0.00000
   489   2    15.69777   -11.77333     0.00000
   490   3    19.62221   -11.77333     0.00000
   491   1   -23.54666    -7.84889     0.00000
   492   2   -19.62221    -7.84889     0.00000
   493   3   -15.69777    -7.84889     0.00000
   494   1   -11.77333    -7.84889     0.00000
   495   2    -7.84889    -7.84889     0.00000
   496   2    -3.92444    -7.84889     0.00000
   497   1     0.00000    -7.84889     0.00000
   498   2     3.92444    -7.84889     0.00000
   499   1     7.84889    -7.84889     0.00000
   500   2    11.77333    -7.84889     0.00000
   501   2    15.69777    -7.84889     0.00000
   502   3    19.62221    -7.84889     0.00000
   503   3    23.54666    -7.84889     0.00000
   504   2   -23.54666    -3.92444     0.00000
   505   2   -19.62221    -3.92444     0.00000
   506   2   -15.69777    -3.92444     0.00000
   507   2   -11.77333    -3.92444     0.00000
   508   2    -7.84889    -3.92444     0.00000
   509   2    -3.92444    -3.92444     0.00000
   510   2     0.00000    -3.92444     0.00000
   511   1     3.92444    -3.92444     0.00000
   512   1     7.84889    -3.92444     0.00000
   513   1    11.77333    -3.92444     0.00000
   514   1    15.69777    -3.92444     0.00000
   515   2    19.62221    -3.92444     0.00000
   516   2    23.54666    -3.92444     0.00000
   517   2   -23.54666     0.00000     0.00000
   518   3   -19.62221     0.00000     0.00000
   519   1   -15.69777     0.00000     0.00000
   520   1   -11.77333     0.00000     0.00000
   521   1    -7.84889     0.00000     0.00000
   522   2    -3.92444     0.00000     0.00000
   523   1     0.00000     0.00000     0.00000
   524   2     3.92444     0.00000     0.00000
   525   1     7.84889     0.00000     0.00000
   526   2    11.77333     0.00000     0.00000
   527   2    15.69777     0.00000     0.00000
   528   2    19.62221     0.00000     0.00000
   529   3    23.54666     0.00000     0.00000
   530   2   -23.54666     3.92444     0.00000
   531   1   -19.62221     3.92444     0.00000
   532   2   -15.69777     3.92444     0.00000
   533   2   -11.77333     3.92444     0.00000
   534   2    -7.84889     3.92444     0.00000
   535   1    -3.92444     3.92444     0.00000
   536   3     0.00000     3.92444     0.00000
   537   2     3.92444     3.92444     0.00000
   538   2     7.84889     3.92444     0.00000
   539   2    11.77333     3.92444     0.00000
   540   1    15.69777     3.92444     0.00000
   541   1    19.62221     3.92444     0.00000
   542   3    23.54666     3.92444     0.00000
   543   1   -23.54666     7.84889     0.00000
   544   2   -19.62221     7.84889     0.00000
   545   2   -15.69777     7.84889     0.00000
   546   2   -11.77333     7.84889     0.00000
   547   2    -7.84889     7.84889     0.00000
   548   2    -3.92444     7.84889     0.00000
   549   2     0.00000     7.84889     0.00000
   550   1     3.92444     7.84889     0.00000
   551   2     7.84889     7.84889     0.00000
   552   2    11.77333     7.84889     0.00000
   553   1    15.69777     7.84889     0.00000
   554   2    19.62221     7.84889     0.00000
   555   3    23.54666     7.84889     0.00000
   556   3   -19.62221    11.77333     0.00000
   557   2   -15.69777    11.77333     0.00000
   558   2   -11.77333    11.77333     0.00000
   559   2    -7.84889    11.77333     0.00000
   560   2    -3.92444    11.77333     0.00000
   561   3     0.00000    11.77333     0.00000
   562   2     3.92444    11.77333     0.00000
   563   3     7.84889    11.77333     0.00000
   564   2    11.77333    11.77333     0.00000
   565   2    15.69777    11.77333     0.00000
   566   2    19.62221    11.77333     0.00000
   567   2   -15.69777    15.69777     0.00000
   568   1   -11.77333    15.69777     0.00000
   569   1    -7.84889    15.69777     0.00000
   570   1    -3.92444    15.69777     0.00000
   571   2     0.00000    15.69777     0.00000
   572   2     3.92444    15.69777     0.00000
   573   1     7.84889    15.69777     0.00000
   574   1    11.77333    15.69777     0.00000
   575   2    15.69777    15.69777     0.00000
   576   1   -11.77333    19.62221     0.00000
   577   2    -7.84889    19.62221     0.00000
   578   1    -3.92444    19.62221     0.00000
   579   3     0.00000    19.62221     0.00000
   580   2     3.92444    19.62221     0.00000
   581   2     7.84889    19.62221     0.00000
   582   2    11.77333    19.62221     0.00000
   583   3    -7.84889    23.54666     0.00000
   584   3    -3.92444    23.54666     0.00000
   585   1     0.00000    23.54666     0.00000
   586   1     3.92444    23.54666     0.00000
   587   3     7.84889    23.54666     0.00000
   588   3    -3.92444   -23.54666     3.92444
   589   2     0.00000   -23.54666     3.92444
   590   3     3.92444   -23.54666     3.92444
   591   2   -11.77333   -19.62221     3.92444
   592   1    -7.84889   -19.62221     3.92444
   593   1    -3.92444   -19.62221     3.92444
   594   3     0.00000   -19.62221     3.92444
   595   1     3.92444   -19.62221     3.92444
   596   2     7.84889   -19.62221     3.92444
   597   1    11.77333   -19.62221     3.92444
   598   2   -15.69777   -15.69777     3.92444
   599   2   -11.77333   -15.69777     3.92444
   600   2    -7.84889   -15.69777     3.92444
   601   2    -3.92444   -15.69777     3.92444
   602   2     0.00000   -15.69777     3.92444
   603   1     3.92444   -15.69777     3.92444
   604   2     7.84889   -15.69777     3.92444
   605   1    11.77333   -15.69777     3.92444
   606   2    15.69777   -15.69777     3.92444
   607   2   -19.62221   -11.77333     3.92444
   608   1   -15.69777   -11.77333     3.92444
   609   2   -11.77333   -11.77333     3.92444
   610   1    -7.84889   -11.77333     3.92444
   611   1    -3.92444   -11.77333     3.92444
   612   2     0.00000   -11.77333     3.92444
   613   1     3.92444   -11.77333     3.92444
   614   1     7.84889   -11.77333     3.92444
   615   1    11.77333   -11.77333     3.92444
   616   2    15.69777   -11.77333     3.92444
   617   2    19.62221   -11.77333     3.92444
   618   2   -19.62221    -7.84889     3.92444
   619   3   -15.69777    -7.84889     3.92444
   620   1   -11.77333    -7.84889     3.92444
   621   2    -7.84889    -7.84889     3.92444
   622   1    -3.92444    -7.84889     3.92444
   623   2     0.00000    -7.84889     3.92444
   624   2     3.92444    -7.84889     3.92444
   625   2     7.84889    -7.84889     3.92444
   626   2    11.77333    -7.84889     3.92444
   627   1    15.69777    -7.84889     3.92444
   628   1    19.62221    -7.84889     3.92444
   629   2   -23.54666    -3.92444     3.92444
   630   2   -19.62221    -3.92444     3.92444
   631   2   -15.69777    -3.92444     3.92444
   632   1   -11.77333    -3.92444     3.92444
   633   1    -7.84889    -3.92444     3.92444
   634   2    -3.92444    -3.92444     3.92444