LAMMPS DATA FOR MEAM SIMULATION

    959   atoms
      2   atom types

  -23.74   23.74   xlo xhi
  -23.74   23.74   ylo yhi
  -23.74   23.74   zlo zhi

 Atoms

     1   2    -3.92444    -7.84889   -11.77333
     2   2     0.00000    -7.84889   -11.77333
     3   2     3.92444    -7.84889   -11.77333
     4   2    -7.84889    -3.92444   -11.77333
     5   2    -3.92444    -3.92444   -11.77333
     6   2     0.00000    -3.92444   -11.77333
     7   2     3.92444    -3.92444   -11.77333
     8   2     7.84889    -3.92444   -11.77333
     9   2    -7.84889     0.00000   -11.77333
    10   2    -3.92444     0.00000   -11.77333
    11   2     0.00000     0.00000   -11.77333
    12   2     3.92444     0.00000   -11.77333
    13   2     7.84889     0.00000   -11.77333
    14   2    -7.84889     3.92444   -11.77333
    15   2    -3.92444     3.92444   -11.77333
    16   2     0.00000     3.92444   -11.77333
    17   2     3.92444     3.92444   -11.77333
    18   2     7.84889     3.92444   -11.77333
    19   2    -3.92444     7.84889   -11.77333
    20   2     0.00000     7.84889   -11.77333
    21   2     3.92444     7.84889   -11.77333
    22   2    -3.92444   -11.77333    -7.84889
    23   2     0.00000   -11.77333    -7.84889
    24   2     3.92444   -11.77333    -7.84889
    25   2    -7.84889    -7.84889    -7.84889
    26   2    -3.92444    -7.84889    -7.84889
    27   2     0.00000    -7.84889    -7.84889
    28   2     3.92444    -7.84889    -7.84889
    29   2     7.84889    -7.84889    -7.84889
    30   2   -11.77333    -3.92444    -7.84889
    31   2    -7.84889    -3.92444    -7.84889
    32   2    -3.92444    -3.92444    -7.84889
    33   2     0.00000    -3.92444    -7.84889
    34   2     3.92444    -3.92444    -7.84889
    35   2     7.84889    -3.92444    -7.84889
    36   2    11.77333    -3.92444    -7.84889
    37   2   -11.77333     0.00000    -7.84889
    38   2    -7.84889     0.00000    -7.84889
    39   2    -3.92444     0.00000    -7.84889
    40   2     0.00000     0.00000    -7.84889
    41   2     3.92444     0.00000    -7.84889
    42   2     7.84889     0.00000    -7.84889
    43   2    11.77333     0.00000    -7.84889
    44   2   -11.77333     3.92444    -7.84889
    45   2    -7.84889     3.92444    -7.84889
    46   2    -3.92444     3.92444    -7.84889
    47   2     0.00000     3.92444    -7.84889
    48   2     3.92444     3.92444    -7.84889
    49   2     7.84889     3.92444    -7.84889
    50   2    11.77333     3.92444    -7.84889
    51   2    -7.84889     7.84889    -7.84889
    52   2    -3.92444     7.84889    -7.84889
    53   2     0.00000     7.84889    -7.84889
    54   2     3.92444     7.84889    -7.84889
    55   2     7.84889     7.84889    -7.84889
    56   2    -3.92444    11.77333    -7.84889
    57   2     0.00000    11.77333    -7.84889
    58   2     3.92444    11.77333    -7.84889
    59   2    -7.84889   -11.77333    -3.92444
    60   2    -3.92444   -11.77333    -3.92444
    61   2     0.00000   -11.77333    -3.92444
    62   2     3.92444   -11.77333    -3.92444
    63   2     7.84889   -11.77333    -3.92444
    64   2   -11.77333    -7.84889    -3.92444
    65   2    -7.84889    -7.84889    -3.92444
    66   2    -3.92444    -7.84889    -3.92444
    67   2     0.00000    -7.84889    -3.92444
    68   2     3.92444    -7.84889    -3.92444
    69   2     7.84889    -7.84889    -3.92444
    70   2    11.77333    -7.84889    -3.92444
    71   2   -11.77333    -3.92444    -3.92444
    72   2    -7.84889    -3.92444    -3.92444
    73   2    -3.92444    -3.92444    -3.92444
    74   2     0.00000    -3.92444    -3.92444
    75   2     3.92444    -3.92444    -3.92444
    76   2     7.84889    -3.92444    -3.92444
    77   2    11.77333    -3.92444    -3.92444
    78   2   -11.77333     0.00000    -3.92444
    79   2    -7.84889     0.00000    -3.92444
    80   2    -3.92444     0.00000    -3.92444
    81   2     0.00000     0.00000    -3.92444
    82   2     3.92444     0.00000    -3.92444
    83   2     7.84889     0.00000    -3.92444
    84   2    11.77333     0.00000    -3.92444
    85   2   -11.77333     3.92444    -3.92444
    86   2    -7.84889     3.92444    -3.92444
    87   2    -3.92444     3.92444    -3.92444
    88   2     0.00000     3.92444    -3.92444
    89   2     3.92444     3.92444    -3.92444
    90   2     7.84889     3.92444    -3.92444
    91   2    11.77333     3.92444    -3.92444
    92   2   -11.77333     7.84889    -3.92444
    93   2    -7.84889     7.84889    -3.92444
    94   2    -3.92444     7.84889    -3.92444
    95   2     0.00000     7.84889    -3.92444
    96   2     3.92444     7.84889    -3.92444
    97   2     7.84889     7.84889    -3.92444
    98   2    11.77333     7.84889    -3.92444
    99   2    -7.84889    11.77333    -3.92444
   100   2    -3.92444    11.77333    -3.92444
   101   2     0.00000    11.77333    -3.92444
   102   2     3.92444    11.77333    -3.92444
   103   2     7.84889    11.77333    -3.92444
   104   2    -7.84889   -11.77333     0.00000
   105   2    -3.92444   -11.77333     0.00000
   106   2     0.00000   -11.77333     0.00000
   107   2     3.92444   -11.77333     0.00000
   108   2     7.84889   -11.77333     0.00000
   109   2   -11.77333    -7.84889     0.00000
   110   2    -7.84889    -7.84889     0.00000
   111   2    -3.92444    -7.84889     0.00000
   112   2     0.00000    -7.84889     0.00000
   113   2     3.92444    -7.84889     0.00000
   114   2     7.84889    -7.84889     0.00000
   115   2    11.77333    -7.84889     0.00000
   116   2   -11.77333    -3.92444     0.00000
   117   2    -7.84889    -3.92444     0.00000
   118   2    -3.92444    -3.92444     0.00000
   119   2     0.00000    -3.92444     0.00000
   120   2     3.92444    -3.92444     0.00000
   121   2     7.84889    -3.92444     0.00000
   122   2    11.77333    -3.92444     0.00000
   123   2   -11.77333     0.00000     0.00000
   124   2    -7.84889     0.00000     0.00000
   125   2    -3.92444     0.00000     0.00000
   126   2     0.00000     0.00000     0.00000
   127   2     3.92444     0.00000     0.00000
   128   2     7.84889     0.00000     0.00000
   129   2    11.77333     0.00000     0.00000
   130   2   -11.77333     3.92444     0.00000
   131   2    -7.84889     3.92444     0.00000
   132   2    -3.92444     3.92444     0.00000
   133   2     0.00000     3.92444     0.00000
   134   2     3.92444     3.92444     0.00000
   135   2     7.84889     3.92444     0.00000
   136   2    11.77333     3.92444     0.00000
   137   2   -11.77333     7.84889     0.00000
   138   2    -7.84889     7.84889     0.00000
   139   2    -3.92444     7.84889     0.00000
   140   2     0.00000     7.84889     0.00000
   141   2     3.92444     7.84889     0.00000
   142   2     7.84889     7.84889     0.00000
   143   2    11.77333     7.84889     0.00000
   144   2    -7.84889    11.77333     0.00000
   145   2    -3.92444    11.77333     0.00000
   146   2     0.00000    11.77333     0.00000
   147   2     3.92444    11.77333     0.00000
   148   2     7.84889    11.77333     0.00000
   149   2    -7.84889   -11.77333     3.92444
   150   2    -3.92444   -11.77333     3.92444
   151   2     0.00000   -11.77333     3.92444
   152   2     3.92444   -11.77333     3.92444
   153   2     7.84889   -11.77333     3.92444
   154   2   -11.77333    -7.84889     3.92444
   155   2    -7.84889    -7.84889     3.92444
   156   2    -3.92444    -7.84889     3.92444
   157   2     0.00000    -7.84889     3.92444
   158   2     3.92444    -7.84889     3.92444
   159   2     7.84889    -7.84889     3.92444
   160   2    11.77333    -7.84889     3.92444
   161   2   -11.77333    -3.92444     3.92444
   162   2    -7.84889    -3.92444     3.92444
   163   2    -3.92444    -3.92444     3.92444
   164   2     0.00000    -3.92444     3.92444
   165   2     3.92444    -3.92444     3.92444
   166   2     7.84889    -3.92444     3.92444
   167   2    11.77333    -3.92444     3.92444
   168   2   -11.77333     0.00000     3.92444
   169   2    -7.84889     0.00000     3.92444
   170   2    -3.92444     0.00000     3.92444
   171   2     0.00000     0.00000     3.92444
   172   2     3.92444     0.00000     3.92444
   173   2     7.84889     0.00000     3.92444
   174   2    11.77333     0.00000     3.92444
   175   2   -11.77333     3.92444     3.92444
   176   2    -7.84889     3.92444     3.92444
   177   2    -3.92444     3.92444     3.92444
   178   2     0.00000     3.92444     3.92444
   179   2     3.92444     3.92444     3.92444
   180   2     7.84889     3.92444     3.92444
   181   2    11.77333     3.92444     3.92444
   182   2   -11.77333     7.84889     3.92444
   183   2    -7.84889     7.84889     3.92444
   184   2    -3.92444     7.84889     3.92444
   185   2     0.00000     7.84889     3.92444
   186   2     3.92444     7.84889     3.92444
   187   2     7.84889     7.84889     3.92444
   188   2    11.77333     7.84889     3.92444
   189   2    -7.84889    11.77333     3.92444
   190   2    -3.92444    11.77333     3.92444
   191   2     0.00000    11.77333     3.92444
   192   2     3.92444    11.77333     3.92444
   193   2     7.84889    11.77333     3.92444
   194   2    -3.92444   -11.77333     7.84889
   195   2     0.00000   -11.77333     7.84889
   196   2     3.92444   -11.77333     7.84889
   197   2    -7.84889    -7.84889     7.84889
   198   2    -3.92444    -7.84889     7.84889
   199   2     0.00000    -7.84889     7.84889
   200   2     3.92444    -7.84889     7.84889
   201   2     7.84889    -7.84889     7.84889
   202   2   -11.77333    -3.92444     7.84889
   203   2    -7.84889    -3.92444     7.84889
   204   2    -3.92444    -3.92444     7.84889
   205   2     0.00000    -3.92444     7.84889
   206   2     3.92444    -3.92444     7.84889
   207   2     7.84889    -3.92444     7.84889
   208   2    11.77333    -3.92444     7.84889
   209   2   -11.77333     0.00000     7.84889
   210   2    -7.84889     0.00000     7.84889
   211   2    -3.92444     0.00000     7.84889
   212   2     0.00000     0.00000     7.84889
   213   2     3.92444     0.00000     7.84889
   214   2     7.84889     0.00000     7.84889
   215   2    11.77333     0.00000     7.84889
   216   2   -11.77333     3.92444     7.84889
   217   2    -7.84889     3.92444     7.84889
   218   2    -3.92444     3.92444     7.84889
   219   2     0.00000     3.92444     7.84889
   220   2     3.92444     3.92444     7.84889
   221   2     7.84889     3.92444     7.84889
   222   2    11.77333     3.92444     7.84889
   223   2    -7.84889     7.84889     7.84889
   224   2    -3.92444     7.84889     7.84889
   225   2     0.00000     7.84889     7.84889
   226   2     3.92444     7.84889     7.84889
   227   2     7.84889     7.84889     7.84889
   228   2    -3.92444    11.77333     7.84889
   229   2     0.00000    11.77333     7.84889
   230   2     3.92444    11.77333     7.84889
   231   2    -3.92444    -7.84889    11.77333
   232   2     0.00000    -7.84889    11.77333
   233   2     3.92444    -7.84889    11.77333
   234   2    -7.84889    -3.92444    11.77333
   235   2    -3.92444    -3.92444    11.77333
   236   2     0.00000    -3.92444    11.77333
   237   2     3.92444    -3.92444    11.77333
   238   2     7.84889    -3.92444    11.77333
   239   2    -7.84889     0.00000    11.77333
   240   2    -3.92444     0.00000    11.77333
   241   2     0.00000     0.00000    11.77333
   242   2     3.92444     0.00000    11.77333
   243   2     7.84889     0.00000    11.77333
   244   2    -7.84889     3.92444    11.77333
   245   2    -3.92444     3.92444    11.77333
   246   2     0.00000     3.92444    11.77333
   247   2     3.92444     3.92444    11.77333
   248   2     7.84889     3.92444    11.77333
   249   2    -3.92444     7.84889    11.77333
   250   2     0.00000     7.84889    11.77333
   251   2     3.92444     7.84889    11.77333
   252   2    -5.88666    -5.88666   -11.77333
   253   2    -1.96222    -5.88666   -11.77333
   254   2     1.96222    -5.88666   -11.77333
   255   2     5.88666    -5.88666   -11.77333
   256   2    -5.88666    -1.96222   -11.77333
   257   2    -1.96222    -1.96222   -11.77333
   258   2     1.96222    -1.96222   -11.77333
   259   2     5.88666    -1.96222   -11.77333
   260   2    -5.88666     1.96222   -11.77333
   261   2    -1.96222     1.96222   -11.77333
   262   2     1.96222     1.96222   -11.77333
   263   2     5.88666     1.96222   -11.77333
   264   2    -5.88666     5.88666   -11.77333
   265   2    -1.96222     5.88666   -11.77333
   266   2     1.96222     5.88666   -11.77333
   267   2     5.88666     5.88666   -11.77333
   268   2    -5.88666    -9.81111    -7.84889
   269   2    -1.96222    -9.81111    -7.84889
   270   2     1.96222    -9.81111    -7.84889
   271   2     5.88666    -9.81111    -7.84889
   272   2    -9.81111    -5.88666    -7.84889
   273   2    -5.88666    -5.88666    -7.84889
   274   2    -1.96222    -5.88666    -7.84889
   275   2     1.96222    -5.88666    -7.84889
   276   2     5.88666    -5.88666    -7.84889
   277   2     9.81111    -5.88666    -7.84889
   278   2    -9.81111    -1.96222    -7.84889
   279   2    -5.88666    -1.96222    -7.84889
   280   2    -1.96222    -1.96222    -7.84889
   281   2     1.96222    -1.96222    -7.84889
   282   2     5.88666    -1.96222    -7.84889
   283   2     9.81111    -1.96222    -7.84889
   284   2    -9.81111     1.96222    -7.84889
   285   2    -5.88666     1.96222    -7.84889
   286   2    -1.96222     1.96222    -7.84889
   287   2     1.96222     1.96222    -7.84889
   288   2     5.88666     1.96222    -7.84889
   289   2     9.81111     1.96222    -7.84889
   290   2    -9.81111     5.88666    -7.84889
   291   2    -5.88666     5.88666    -7.84889
   292   2    -1.96222     5.88666    -7.84889
   293   2     1.96222     5.88666    -7.84889
   294   2     5.88666     5.88666    -7.84889
   295   2     9.81111     5.88666    -7.84889
   296   2    -5.88666     9.81111    -7.84889
   297   2    -1.96222     9.81111    -7.84889
   298   2     1.96222     9.81111    -7.84889
   299   2     5.88666     9.81111    -7.84889
   300   2    -1.96222   -13.73555    -3.92444
   301   2     1.96222   -13.73555    -3.92444
   302   2    -9.81111    -9.81111    -3.92444
   303   2    -5.88666    -9.81111    -3.92444
   304   2    -1.96222    -9.81111    -3.92444
   305   2     1.96222    -9.81111    -3.92444
   306   2     5.88666    -9.81111    -3.92444
   307   2     9.81111    -9.81111    -3.92444
   308   2    -9.81111    -5.88666    -3.92444
   309   2    -5.88666    -5.88666    -3.92444
   310   2    -1.96222    -5.88666    -3.92444
   311   2     1.96222    -5.88666    -3.92444
   312   2     5.88666    -5.88666    -3.92444
   313   2     9.81111    -5.88666    -3.92444
   314   2   -13.73555    -1.96222    -3.92444
   315   2    -9.81111    -1.96222    -3.92444
   316   2    -5.88666    -1.96222    -3.92444
   317   2    -1.96222    -1.96222    -3.92444
   318   2     1.96222    -1.96222    -3.92444
   319   2     5.88666    -1.96222    -3.92444
   320   2     9.81111    -1.96222    -3.92444
   321   2    13.73555    -1.96222    -3.92444
   322   2   -13.73555     1.96222    -3.92444
   323   2    -9.81111     1.96222    -3.92444
   324   2    -5.88666     1.96222    -3.92444
   325   2    -1.96222     1.96222    -3.92444
   326   2     1.96222     1.96222    -3.92444
   327   2     5.88666     1.96222    -3.92444
   328   2     9.81111     1.96222    -3.92444
   329   2    13.73555     1.96222    -3.92444
   330   2    -9.81111     5.88666    -3.92444
   331   2    -5.88666     5.88666    -3.92444
   332   2    -1.96222     5.88666    -3.92444
   333   2     1.96222     5.88666    -3.92444
   334   2     5.88666     5.88666    -3.92444
   335   2     9.81111     5.88666    -3.92444
   336   2    -9.81111     9.81111    -3.92444
   337   2    -5.88666     9.81111    -3.92444
   338   2    -1.96222     9.81111    -3.92444
   339   2     1.96222     9.81111    -3.92444
   340   2     5.88666     9.81111    -3.92444
   341   2     9.81111     9.81111    -3.92444
   342   2    -1.96222    13.73555    -3.92444
   343   2     1.96222    13.73555    -3.92444
   344   2    -5.88666   -13.73555     0.00000
   345   2    -1.96222   -13.73555     0.00000
   346   2     1.96222   -13.73555     0.00000
   347   2     5.88666   -13.73555     0.00000
   348   2    -9.81111    -9.81111     0.00000
   349   2    -5.88666    -9.81111     0.00000
   350   2    -1.96222    -9.81111     0.00000
   351   2     1.96222    -9.81111     0.00000
   352   2     5.88666    -9.81111     0.00000
   353   2     9.81111    -9.81111     0.00000
   354   2   -13.73555    -5.88666     0.00000
   355   2    -9.81111    -5.88666     0.00000
   356   2    -5.88666    -5.88666     0.00000
   357   2    -1.96222    -5.88666     0.00000
   358   2     1.96222    -5.88666     0.00000
   359   2     5.88666    -5.88666     0.00000
   360   2     9.81111    -5.88666     0.00000
   361   2    13.73555    -5.88666     0.00000
   362   2   -13.73555    -1.96222     0.00000
   363   2    -9.81111    -1.96222     0.00000
   364   2    -5.88666    -1.96222     0.00000
   365   2    -1.96222    -1.96222     0.00000
   366   2     1.96222    -1.96222     0.00000
   367   2     5.88666    -1.96222     0.00000
   368   2     9.81111    -1.96222     0.00000
   369   2    13.73555    -1.96222     0.00000
   370   2   -13.73555     1.96222     0.00000
   371   2    -9.81111     1.96222     0.00000
   372   2    -5.88666     1.96222     0.00000
   373   2    -1.96222     1.96222     0.00000
   374   2     1.96222     1.96222     0.00000
   375   2     5.88666     1.96222     0.00000
   376   2     9.81111     1.96222     0.00000
   377   2    13.73555     1.96222     0.00000
   378   2   -13.73555     5.88666     0.00000
   379   2    -9.81111     5.88666     0.00000
   380   2    -5.88666     5.88666     0.00000
   381   2    -1.96222     5.88666     0.00000
   382   2     1.96222     5.88666     0.00000
   383   2     5.88666     5.88666     0.00000
   384   2     9.81111     5.88666     0.00000
   385   2    13.73555     5.88666     0.00000
   386   2    -9.81111     9.81111     0.00000
   387   2    -5.88666     9.81111     0.00000
   388   2    -1.96222     9.81111     0.00000
   389   2     1.96222     9.81111     0.00000
   390   2     5.88666     9.81111     0.00000
   391   2     9.81111     9.81111     0.00000
   392   2    -5.88666    13.73555     0.00000
   393   2    -1.96222    13.73555     0.00000
   394   2     1.96222    13.73555     0.00000
   395   2     5.88666    13.73555     0.00000
   396   2    -1.96222   -13.73555     3.92444
   397   2     1.96222   -13.73555     3.92444
   398   2    -9.81111    -9.81111     3.92444
   399   2    -5.88666    -9.81111     3.92444
   400   2    -1.96222    -9.81111     3.92444
   401   2     1.96222    -9.81111     3.92444
   402   2     5.88666    -9.81111     3.92444
   403   2     9.81111    -9.81111     3.92444
   404   2    -9.81111    -5.88666     3.92444
   405   2    -5.88666    -5.88666     3.92444
   406   2    -1.96222    -5.88666     3.92444
   407   2     1.96222    -5.88666     3.92444
   408   2     5.88666    -5.88666     3.92444
   409   2     9.81111    -5.88666     3.92444
   410   2   -13.73555    -1.96222     3.92444
   411   2    -9.81111    -1.96222     3.92444
   412   2    -5.88666    -1.96222     3.92444
   413   2    -1.96222    -1.96222     3.92444
   414   2     1.96222    -1.96222     3.92444
   415   2     5.88666    -1.96222     3.92444
   416   2     9.81111    -1.96222     3.92444
   417   2    13.73555    -1.96222     3.92444
   418   2   -13.73555     1.96222     3.92444
   419   2    -9.81111     1.96222     3.92444
   420   2    -5.88666     1.96222     3.92444
   421   2    -1.96222     1.96222     3.92444
   422   2     1.96222     1.96222     3.92444
   423   2     5.88666     1.96222     3.92444
   424   2     9.81111     1.96222     3.92444
   425   2    13.73555     1.96222     3.92444
   426   2    -9.81111     5.88666     3.92444
   427   2    -5.88666     5.88666     3.92444
   428   2    -1.96222     5.88666     3.92444
   429   2     1.96222     5.88666     3.92444
   430   2     5.88666     5.88666     3.92444
   431   2     9.81111     5.88666     3.92444
   432   2    -9.81111     9.81111     3.92444
   433   2    -5.88666     9.81111     3.92444
   434   2    -1.96222     9.81111     3.92444
   435   2     1.96222     9.81111     3.92444
   436   2     5.88666     9.81111     3.92444
   437   2     9.81111     9.81111     3.92444
   438   2    -1.96222    13.73555     3.92444
   439   2     1.96222    13.73555     3.92444
   440   2    -5.88666    -9.81111     7.84889
   441   2    -1.96222    -9.81111     7.84889
   442   2     1.96222    -9.81111     7.84889
   443   2     5.88666    -9.81111     7.84889
   444   2    -9.81111    -5.88666     7.84889
   445   2    -5.88666    -5.88666     7.84889
   446   2    -1.96222    -5.88666     7.84889
   447   2     1.96222    -5.88666     7.84889
   448   2     5.88666    -5.88666     7.84889
   449   2     9.81111    -5.88666     7.84889
   450   2    -9.81111    -1.96222     7.84889
   451   2    -5.88666    -1.96222     7.84889
   452   2    -1.96222    -1.96222     7.84889
   453   2     1.96222    -1.96222     7.84889
   454   2     5.88666    -1.96222     7.84889
   455   2     9.81111    -1.96222     7.84889
   456   2    -9.81111     1.96222     7.84889
   457   2    -5.88666     1.96222     7.84889
   458   2    -1.96222     1.96222     7.84889
   459   2     1.96222     1.96222     7.84889
   460   2     5.88666     1.96222     7.84889
   461   2     9.81111     1.96222     7.84889
   462   2    -9.81111     5.88666     7.84889
   463   2    -5.88666     5.88666     7.84889
   464   2    -1.96222     5.88666     7.84889
   465   2     1.96222     5.88666     7.84889
   466   2     5.88666     5.88666     7.84889
   467   2     9.81111     5.88666     7.84889
   468   2    -5.88666     9.81111     7.84889
   469   2    -1.96222     9.81111     7.84889
   470   2     1.96222     9.81111     7.84889
   471   2     5.88666     9.81111     7.84889
   472   2    -5.88666    -5.88666    11.77333
   473   2    -1.96222    -5.88666    11.77333
   474   2     1.96222    -5.88666    11.77333
   475   2     5.88666    -5.88666    11.77333
   476   2    -5.88666    -1.96222    11.77333
   477   2    -1.96222    -1.96222    11.77333
   478   2     1.96222    -1.96222    11.77333
   479   2     5.88666    -1.96222    11.77333
   480   2    -5.88666     1.96222    11.77333
   481   2    -1.96222     1.96222    11.77333
   482   2     1.96222     1.96222    11.77333
   483   2     5.88666     1.96222    11.77333
   484   2    -5.88666     5.88666    11.77333
   485   2    -1.96222     5.88666    11.77333
   486   2     1.96222     5.88666    11.77333
   487   2     5.88666     5.88666    11.77333
   488   2    -5.88666   -11.77333    -5.88666
   489   2    -1.96222   -11.77333    -5.88666
   490   2     1.96222   -11.77333    -5.88666
   491   2     5.88666   -11.77333    -5.88666
   492   2    -5.88666   -11.77333    -1.96222
   493   2    -1.96222   -11.77333    -1.96222
   494   2     1.96222   -11.77333    -1.96222
   495   2     5.88666   -11.77333    -1.96222
   496   2    -5.88666   -11.77333     1.96222
   497   2    -1.96222   -11.77333     1.96222
   498   2     1.96222   -11.77333     1.96222
   499   2     5.88666   -11.77333     1.96222
   500   2    -5.88666   -11.77333     5.88666
   501   2    -1.96222   -11.77333     5.88666
   502   2     1.96222   -11.77333     5.88666
   503   2     5.88666   -11.77333     5.88666
   504   2    -5.88666    -7.84889    -9.81111
   505   2    -1.96222    -7.84889    -9.81111
   506   2     1.96222    -7.84889    -9.81111
   507   2     5.88666    -7.84889    -9.81111
   508   2    -9.81111    -7.84889    -5.88666
   509   2    -5.88666    -7.84889    -5.88666
   510   2    -1.96222    -7.84889    -5.88666
   511   2     1.96222    -7.84889    -5.88666
   512   2     5.88666    -7.84889    -5.88666
   513   2     9.81111    -7.84889    -5.88666
   514   2    -9.81111    -7.84889    -1.96222
   515   2    -5.88666    -7.84889    -1.96222
   516   2    -1.96222    -7.84889    -1.96222
   517   2     1.96222    -7.84889    -1.96222
   518   2     5.88666    -7.84889    -1.96222
   519   2     9.81111    -7.84889    -1.96222
   520   2    -9.81111    -7.84889     1.96222
   521   2    -5.88666    -7.84889     1.96222
   522   2    -1.96222    -7.84889     1.96222
   523   2     1.96222    -7.84889     1.96222
   524   2     5.88666    -7.84889     1.96222
   525   2     9.81111    -7.84889     1.96222
   526   2    -9.81111    -7.84889     5.88666
   527   2    -5.88666    -7.84889     5.88666
   528   2    -1.96222    -7.84889     5.88666
   529   2     1.96222    -7.84889     5.88666
   530   2     5.88666    -7.84889     5.88666
   531   2     9.81111    -7.84889     5.88666
   532   2    -5.88666    -7.84889     9.81111
   533   2    -1.96222    -7.84889     9.81111
   534   2     1.96222    -7.84889     9.81111
   535   2     5.88666    -7.84889     9.81111
   536   2    -1.96222    -3.92444   -13.73555
   537   2     1.96222    -3.92444   -13.73555
   538   2    -9.81111    -3.92444    -9.81111
   539   2    -5.88666    -3.92444    -9.81111
   540   2    -1.96222    -3.92444    -9.81111
   541   2     1.96222    -3.92444    -9.81111
   542   2     5.88666    -3.92444    -9.81111
   543   2     9.81111    -3.92444    -9.81111
   544   2    -9.81111    -3.92444    -5.88666
   545   2    -5.88666    -3.92444    -5.88666
   546   2    -1.96222    -3.92444    -5.88666
   547   2     1.96222    -3.92444    -5.88666
   548   2     5.88666    -3.92444    -5.88666
   549   2     9.81111    -3.92444    -5.88666
   550   2   -13.73555    -3.92444    -1.96222
   551   2    -9.81111    -3.92444    -1.96222
   552   2    -5.88666    -3.92444    -1.96222
   553   2    -1.96222    -3.92444    -1.96222
   554   2     1.96222    -3.92444    -1.96222
   555   2     5.88666    -3.92444    -1.96222
   556   2     9.81111    -3.92444    -1.96222
   557   2    13.73555    -3.92444    -1.96222
   558   2   -13.73555    -3.92444     1.96222
   559   2    -9.81111    -3.92444     1.96222
   560   2    -5.88666    -3.92444     1.96222
   561   2    -1.96222    -3.92444     1.96222
   562   2     1.96222    -3.92444     1.96222
   563   2     5.88666    -3.92444     1.96222
   564   2     9.81111    -3.92444     1.96222
   565   2    13.73555    -3.92444     1.96222
   566   2    -9.81111    -3.92444     5.88666
   567   2    -5.88666    -3.92444     5.88666
   568   2    -1.96222    -3.92444     5.88666
   569   2     1.96222    -3.92444     5.88666
   570   2     5.88666    -3.92444     5.88666
   571   2     9.81111    -3.92444     5.88666
   572   2    -9.81111    -3.92444     9.81111
   573   2    -5.88666    -3.92444     9.81111
   574   2    -1.96222    -3.92444     9.81111
   575   2     1.96222    -3.92444     9.81111
   576   2     5.88666    -3.92444     9.81111
   577   2     9.81111    -3.92444     9.81111
   578   2    -1.96222    -3.92444    13.73555
   579   2     1.96222    -3.92444    13.73555
   580   2    -5.88666     0.00000   -13.73555
   581   2    -1.96222     0.00000   -13.73555
   582   2     1.96222     0.00000   -13.73555
   583   2     5.88666     0.00000   -13.73555
   584   2    -9.81111     0.00000    -9.81111
   585   2    -5.88666     0.00000    -9.81111
   586   2    -1.96222     0.00000    -9.81111
   587   2     1.96222     0.00000    -9.81111
   588   2     5.88666     0.00000    -9.81111
   589   2     9.81111     0.00000    -9.81111
   590   2   -13.73555     0.00000    -5.88666
   591   2    -9.81111     0.00000    -5.88666
   592   2    -5.88666     0.00000    -5.88666
   593   2    -1.96222     0.00000    -5.88666
   594   2     1.96222     0.00000    -5.88666
   595   2     5.88666     0.00000    -5.88666
   596   2     9.81111     0.00000    -5.88666
   597   2    13.73555     0.00000    -5.88666
   598   2   -13.73555     0.00000    -1.96222
   599   2    -9.81111     0.00000    -1.96222
   600   2    -5.88666     0.00000    -1.96222
   601   2    -1.96222     0.00000    -1.96222
   602   2     1.96222     0.00000    -1.96222
   603   2     5.88666     0.00000    -1.96222
   604   2     9.81111     0.00000    -1.96222
   605   2    13.73555     0.00000    -1.96222
   606   2   -13.73555     0.00000     1.96222
   607   2    -9.81111     0.00000     1.96222
   608   2    -5.88666     0.00000     1.96222
   609   2    -1.96222     0.00000     1.96222
   610   2     1.96222     0.00000     1.96222
   611   2     5.88666     0.00000     1.96222
   612   2     9.81111     0.00000     1.96222
   613   2    13.73555     0.00000     1.96222
   614   2   -13.73555     0.00000     5.88666
   615   2    -9.81111     0.00000     5.88666
   616   2    -5.88666     0.00000     5.88666
   617   2    -1.96222     0.00000     5.88666
   618   2     1.96222     0.00000     5.88666
   619   2     5.88666     0.00000     5.88666
   620   2     9.81111     0.00000     5.88666
   621   2    13.73555     0.00000     5.88666
   622   2    -9.81111     0.00000     9.81111
   623   2    -5.88666     0.00000     9.81111
   624   2    -1.96222     0.00000     9.81111
   625   2     1.96222     0.00000     9.81111
   626   2     5.88666     0.00000     9.81111
   627   2     9.81111     0.00000     9.81111
   628   2    -5.88666     0.00000    13.73555
   629   2    -1.96222     0.00000    13.73555
   630   2     1.96222     0.00000    13.73555
   631   2     5.88666     0.00000    13.73555
   632   2    -1.96222     3.92444   -13.73555
   633   2     1.96222     3.92444   -13.73555
   634   2    -9.81111     3.92444    -9.81111