LAMMPS DATA FOR MEAM SIMULATION

   4321   atoms
      3   atom types

  -33.55   33.55   xlo xhi
  -33.55   33.55   ylo yhi
  -33.55   33.55   zlo zhi

 Atoms

     1   2     0.00000    -7.84889   -23.54666
     2   1    -3.92444    -3.92444   -23.54666
     3   2     0.00000    -3.92444   -23.54666
     4   3     3.92444    -3.92444   -23.54666
     5   1    -7.84889     0.00000   -23.54666
     6   2    -3.92444     0.00000   -23.54666
     7   2     0.00000     0.00000   -23.54666
     8   2     3.92444     0.00000   -23.54666
     9   2     7.84889     0.00000   -23.54666
    10   1    -3.92444     3.92444   -23.54666
    11   1     0.00000     3.92444   -23.54666
    12   2     3.92444     3.92444   -23.54666
    13   2     0.00000     7.84889   -23.54666
    14   3    -7.84889   -11.77333   -19.62221
    15   1    -3.92444   -11.77333   -19.62221
    16   3     0.00000   -11.77333   -19.62221
    17   2     3.92444   -11.77333   -19.62221
    18   2     7.84889   -11.77333   -19.62221
    19   3   -11.77333    -7.84889   -19.62221
    20   2    -7.84889    -7.84889   -19.62221
    21   1    -3.92444    -7.84889   -19.62221
    22   2     0.00000    -7.84889   -19.62221
    23   3     3.92444    -7.84889   -19.62221
    24   2     7.84889    -7.84889   -19.62221
    25   2    11.77333    -7.84889   -19.62221
    26   1   -11.77333    -3.92444   -19.62221
    27   1    -7.84889    -3.92444   -19.62221
    28   2    -3.92444    -3.92444   -19.62221
    29   2     0.00000    -3.92444   -19.62221
    30   2     3.92444    -3.92444   -19.62221
    31   2     7.84889    -3.92444   -19.62221
    32   3    11.77333    -3.92444   -19.62221
    33   1   -11.77333     0.00000   -19.62221
    34   3    -7.84889     0.00000   -19.62221
    35   2    -3.92444     0.00000   -19.62221
    36   2     0.00000     0.00000   -19.62221
    37   1     3.92444     0.00000   -19.62221
    38   2     7.84889     0.00000   -19.62221
    39   2    11.77333     0.00000   -19.62221
    40   2   -11.77333     3.92444   -19.62221
    41   1    -7.84889     3.92444   -19.62221
    42   1    -3.92444     3.92444   -19.62221
    43   2     0.00000     3.92444   -19.62221
    44   2     3.92444     3.92444   -19.62221
    45   1     7.84889     3.92444   -19.62221
    46   1    11.77333     3.92444   -19.62221
    47   1   -11.77333     7.84889   -19.62221
    48   2    -7.84889     7.84889   -19.62221
    49   2    -3.92444     7.84889   -19.62221
    50   3     0.00000     7.84889   -19.62221
    51   1     3.92444     7.84889   -19.62221
    52   1     7.84889     7.84889   -19.62221
    53   2    11.77333     7.84889   -19.62221
    54   2    -7.84889    11.77333   -19.62221
    55   2    -3.92444    11.77333   -19.62221
    56   2     0.00000    11.77333   -19.62221
    57   2     3.92444    11.77333   -19.62221
    58   2     7.84889    11.77333   -19.62221
    59   1    -7.84889   -15.69777   -15.69777
    60   2    -3.92444   -15.69777   -15.69777
    61   1     0.00000   -15.69777   -15.69777
    62   3     3.92444   -15.69777   -15.69777
    63   1     7.84889   -15.69777   -15.69777
    64   1   -11.77333   -11.77333   -15.69777
    65   2    -7.84889   -11.77333   -15.69777
    66   2    -3.92444   -11.77333   -15.69777
    67   3     0.00000   -11.77333   -15.69777
    68   2     3.92444   -11.77333   -15.69777
    69   2     7.84889   -11.77333   -15.69777
    70   2    11.77333   -11.77333   -15.69777
    71   2   -15.69777    -7.84889   -15.69777
    72   1   -11.77333    -7.84889   -15.69777
    73   3    -7.84889    -7.84889   -15.69777
    74   2    -3.92444    -7.84889   -15.69777
    75   2     0.00000    -7.84889   -15.69777
    76   1     3.92444    -7.84889   -15.69777
    77   1     7.84889    -7.84889   -15.69777
    78   3    11.77333    -7.84889   -15.69777
    79   2    15.69777    -7.84889   -15.69777
    80   1   -15.69777    -3.92444   -15.69777
    81   3   -11.77333    -3.92444   -15.69777
    82   3    -7.84889    -3.92444   -15.69777
    83   1    -3.92444    -3.92444   -15.69777
    84   2     0.00000    -3.92444   -15.69777
    85   2     3.92444    -3.92444   -15.69777
    86   3     7.84889    -3.92444   -15.69777
    87   2    11.77333    -3.92444   -15.69777
    88   1    15.69777    -3.92444   -15.69777
    89   2   -15.69777     0.00000   -15.69777
    90   3   -11.77333     0.00000   -15.69777
    91   3    -7.84889     0.00000   -15.69777
    92   3    -3.92444     0.00000   -15.69777
    93   3     0.00000     0.00000   -15.69777
    94   3     3.92444     0.00000   -15.69777
    95   2     7.84889     0.00000   -15.69777
    96   2    11.77333     0.00000   -15.69777
    97   2    15.69777     0.00000   -15.69777
    98   2   -15.69777     3.92444   -15.69777
    99   1   -11.77333     3.92444   -15.69777
   100   3    -7.84889     3.92444   -15.69777
   101   3    -3.92444     3.92444   -15.69777
   102   2     0.00000     3.92444   -15.69777
   103   3     3.92444     3.92444   -15.69777
   104   3     7.84889     3.92444   -15.69777
   105   2    11.77333     3.92444   -15.69777
   106   2    15.69777     3.92444   -15.69777
   107   2   -15.69777     7.84889   -15.69777
   108   2   -11.77333     7.84889   -15.69777
   109   2    -7.84889     7.84889   -15.69777
   110   2    -3.92444     7.84889   -15.69777
   111   2     0.00000     7.84889   -15.69777
   112   1     3.92444     7.84889   -15.69777
   113   3     7.84889     7.84889   -15.69777
   114   2    11.77333     7.84889   -15.69777
   115   1    15.69777     7.84889   -15.69777
   116   1   -11.77333    11.77333   -15.69777
   117   1    -7.84889    11.77333   -15.69777
   118   2    -3.92444    11.77333   -15.69777
   119   2     0.00000    11.77333   -15.69777
   120   3     3.92444    11.77333   -15.69777
   121   1     7.84889    11.77333   -15.69777
   122   1    11.77333    11.77333   -15.69777
   123   3    -7.84889    15.69777   -15.69777
   124   2    -3.92444    15.69777   -15.69777
   125   1     0.00000    15.69777   -15.69777
   126   2     3.92444    15.69777   -15.69777
   127   2     7.84889    15.69777   -15.69777
   128   2    -7.84889   -19.62221   -11.77333
   129   2    -3.92444   -19.62221   -11.77333
   130   2     0.00000   -19.62221   -11.77333
   131   2     3.92444   -19.62221   -11.77333
   132   2     7.84889   -19.62221   -11.77333
   133   1   -11.77333   -15.69777   -11.77333
   134   3    -7.84889   -15.69777   -11.77333
   135   3    -3.92444   -15.69777   -11.77333
   136   1     0.00000   -15.69777   -11.77333
   137   2     3.92444   -15.69777   -11.77333
   138   1     7.84889   -15.69777   -11.77333
   139   3    11.77333   -15.69777   -11.77333
   140   1   -15.69777   -11.77333   -11.77333
   141   2   -11.77333   -11.77333   -11.77333
   142   3    -7.84889   -11.77333   -11.77333
   143   2    -3.92444   -11.77333   -11.77333
   144   3     0.00000   -11.77333   -11.77333
   145   2     3.92444   -11.77333   -11.77333
   146   3     7.84889   -11.77333   -11.77333
   147   1    11.77333   -11.77333   -11.77333
   148   2    15.69777   -11.77333   -11.77333
   149   2   -19.62221    -7.84889   -11.77333
   150   3   -15.69777    -7.84889   -11.77333
   151   2   -11.77333    -7.84889   -11.77333
   152   2    -7.84889    -7.84889   -11.77333
   153   3    -3.92444    -7.84889   -11.77333
   154   2     0.00000    -7.84889   -11.77333
   155   1     3.92444    -7.84889   -11.77333
   156   1     7.84889    -7.84889   -11.77333
   157   2    11.77333    -7.84889   -11.77333
   158   2    15.69777    -7.84889   -11.77333
   159   1    19.62221    -7.84889   -11.77333
   160   2   -19.62221    -3.92444   -11.77333
   161   2   -15.69777    -3.92444   -11.77333
   162   2   -11.77333    -3.92444   -11.77333
   163   3    -7.84889    -3.92444   -11.77333
   164   3    -3.92444    -3.92444   -11.77333
   165   2     0.00000    -3.92444   -11.77333
   166   3     3.92444    -3.92444   -11.77333
   167   3     7.84889    -3.92444   -11.77333
   168   2    11.77333    -3.92444   -11.77333
   169   2    15.69777    -3.92444   -11.77333
   170   1    19.62221    -3.92444   -11.77333
   171   3   -19.62221     0.00000   -11.77333
   172   2   -15.69777     0.00000   -11.77333
   173   3   -11.77333     0.00000   -11.77333
   174   1    -7.84889     0.00000   -11.77333
   175   2    -3.92444     0.00000   -11.77333
   176   2     0.00000     0.00000   -11.77333
   177   1     3.92444     0.00000   -11.77333
   178   3     7.84889     0.00000   -11.77333
   179   3    11.77333     0.00000   -11.77333
   180   1    15.69777     0.00000   -11.77333
   181   1    19.62221     0.00000   -11.77333
   182   2   -19.62221     3.92444   -11.77333
   183   2   -15.69777     3.92444   -11.77333
   184   2   -11.77333     3.92444   -11.77333
   185   1    -7.84889     3.92444   -11.77333
   186   1    -3.92444     3.92444   -11.77333
   187   3     0.00000     3.92444   -11.77333
   188   2     3.92444     3.92444   -11.77333
   189   3     7.84889     3.92444   -11.77333
   190   3    11.77333     3.92444   -11.77333
   191   1    15.69777     3.92444   -11.77333
   192   1    19.62221     3.92444   -11.77333
   193   1   -19.62221     7.84889   -11.77333
   194   1   -15.69777     7.84889   -11.77333
   195   2   -11.77333     7.84889   -11.77333
   196   2    -7.84889     7.84889   -11.77333
   197   1    -3.92444     7.84889   -11.77333
   198   1     0.00000     7.84889   -11.77333
   199   3     3.92444     7.84889   -11.77333
   200   3     7.84889     7.84889   -11.77333
   201   2    11.77333     7.84889   -11.77333
   202   2    15.69777     7.84889   -11.77333
   203   2    19.62221     7.84889   -11.77333
   204   2   -15.69777    11.77333   -11.77333
   205   2   -11.77333    11.77333   -11.77333
   206   3    -7.84889    11.77333   -11.77333
   207   2    -3.92444    11.77333   -11.77333
   208   3     0.00000    11.77333   -11.77333
   209   3     3.92444    11.77333   -11.77333
   210   3     7.84889    11.77333   -11.77333
   211   1    11.77333    11.77333   -11.77333
   212   3    15.69777    11.77333   -11.77333
   213   1   -11.77333    15.69777   -11.77333
   214   3    -7.84889    15.69777   -11.77333
   215   2    -3.92444    15.69777   -11.77333
   216   2     0.00000    15.69777   -11.77333
   217   3     3.92444    15.69777   -11.77333
   218   1     7.84889    15.69777   -11.77333
   219   2    11.77333    15.69777   -11.77333
   220   1    -7.84889    19.62221   -11.77333
   221   1    -3.92444    19.62221   -11.77333
   222   3     0.00000    19.62221   -11.77333
   223   3     3.92444    19.62221   -11.77333
   224   1     7.84889    19.62221   -11.77333
   225   2     0.00000   -23.54666    -7.84889
   226   2   -11.77333   -19.62221    -7.84889
   227   2    -7.84889   -19.62221    -7.84889
   228   1    -3.92444   -19.62221    -7.84889
   229   1     0.00000   -19.62221    -7.84889
   230   2     3.92444   -19.62221    -7.84889
   231   1     7.84889   -19.62221    -7.84889
   232   1    11.77333   -19.62221    -7.84889
   233   3   -15.69777   -15.69777    -7.84889
   234   1   -11.77333   -15.69777    -7.84889
   235   2    -7.84889   -15.69777    -7.84889
   236   2    -3.92444   -15.69777    -7.84889
   237   3     0.00000   -15.69777    -7.84889
   238   2     3.92444   -15.69777    -7.84889
   239   1     7.84889   -15.69777    -7.84889
   240   1    11.77333   -15.69777    -7.84889
   241   2    15.69777   -15.69777    -7.84889
   242   2   -19.62221   -11.77333    -7.84889
   243   2   -15.69777   -11.77333    -7.84889
   244   3   -11.77333   -11.77333    -7.84889
   245   1    -7.84889   -11.77333    -7.84889
   246   3    -3.92444   -11.77333    -7.84889
   247   2     0.00000   -11.77333    -7.84889
   248   2     3.92444   -11.77333    -7.84889
   249   1     7.84889   -11.77333    -7.84889
   250   2    11.77333   -11.77333    -7.84889
   251   2    15.69777   -11.77333    -7.84889
   252   2    19.62221   -11.77333    -7.84889
   253   2   -19.62221    -7.84889    -7.84889
   254   3   -15.69777    -7.84889    -7.84889
   255   2   -11.77333    -7.84889    -7.84889
   256   3    -7.84889    -7.84889    -7.84889
   257   3    -3.92444    -7.84889    -7.84889
   258   3     0.00000    -7.84889    -7.84889
   259   3     3.92444    -7.84889    -7.84889
   260   3     7.84889    -7.84889    -7.84889
   261   3    11.77333    -7.84889    -7.84889
   262   2    15.69777    -7.84889    -7.84889
   263   1    19.62221    -7.84889    -7.84889
   264   2   -19.62221    -3.92444    -7.84889
   265   2   -15.69777    -3.92444    -7.84889
   266   2   -11.77333    -3.92444    -7.84889
   267   3    -7.84889    -3.92444    -7.84889
   268   1    -3.92444    -3.92444    -7.84889
   269   3     0.00000    -3.92444    -7.84889
   270   3     3.92444    -3.92444    -7.84889
   271   3     7.84889    -3.92444    -7.84889
   272   3    11.77333    -3.92444    -7.84889
   273   2    15.69777    -3.92444    -7.84889
   274   2    19.62221    -3.92444    -7.84889
   275   2   -23.54666     0.00000    -7.84889
   276   2   -19.62221     0.00000    -7.84889
   277   3   -15.69777     0.00000    -7.84889
   278   2   -11.77333     0.00000    -7.84889
   279   3    -7.84889     0.00000    -7.84889
   280   3    -3.92444     0.00000    -7.84889
   281   3     0.00000     0.00000    -7.84889
   282   3     3.92444     0.00000    -7.84889
   283   3     7.84889     0.00000    -7.84889
   284   2    11.77333     0.00000    -7.84889
   285   3    15.69777     0.00000    -7.84889
   286   1    19.62221     0.00000    -7.84889
   287   2    23.54666     0.00000    -7.84889
   288   2   -19.62221     3.92444    -7.84889
   289   3   -15.69777     3.92444    -7.84889
   290   3   -11.77333     3.92444    -7.84889
   291   1    -7.84889     3.92444    -7.84889
   292   3    -3.92444     3.92444    -7.84889
   293   3     0.00000     3.92444    -7.84889
   294   1     3.92444     3.92444    -7.84889
   295   2     7.84889     3.92444    -7.84889
   296   2    11.77333     3.92444    -7.84889
   297   1    15.69777     3.92444    -7.84889
   298   1    19.62221     3.92444    -7.84889
   299   1   -19.62221     7.84889    -7.84889
   300   2   -15.69777     7.84889    -7.84889
   301   2   -11.77333     7.84889    -7.84889
   302   3    -7.84889     7.84889    -7.84889
   303   2    -3.92444     7.84889    -7.84889
   304   3     0.00000     7.84889    -7.84889
   305   2     3.92444     7.84889    -7.84889
   306   2     7.84889     7.84889    -7.84889
   307   1    11.77333     7.84889    -7.84889
   308   2    15.69777     7.84889    -7.84889
   309   3    19.62221     7.84889    -7.84889
   310   1   -19.62221    11.77333    -7.84889
   311   1   -15.69777    11.77333    -7.84889
   312   2   -11.77333    11.77333    -7.84889
   313   3    -7.84889    11.77333    -7.84889
   314   3    -3.92444    11.77333    -7.84889
   315   3     0.00000    11.77333    -7.84889
   316   2     3.92444    11.77333    -7.84889
   317   2     7.84889    11.77333    -7.84889
   318   2    11.77333    11.77333    -7.84889
   319   1    15.69777    11.77333    -7.84889
   320   2    19.62221    11.77333    -7.84889
   321   1   -15.69777    15.69777    -7.84889
   322   1   -11.77333    15.69777    -7.84889
   323   2    -7.84889    15.69777    -7.84889
   324   1    -3.92444    15.69777    -7.84889
   325   3     0.00000    15.69777    -7.84889
   326   2     3.92444    15.69777    -7.84889
   327   2     7.84889    15.69777    -7.84889
   328   3    11.77333    15.69777    -7.84889
   329   2    15.69777    15.69777    -7.84889
   330   2   -11.77333    19.62221    -7.84889
   331   2    -7.84889    19.62221    -7.84889
   332   1    -3.92444    19.62221    -7.84889
   333   2     0.00000    19.62221    -7.84889
   334   2     3.92444    19.62221    -7.84889
   335   1     7.84889    19.62221    -7.84889
   336   1    11.77333    19.62221    -7.84889
   337   1     0.00000    23.54666    -7.84889
   338   2    -3.92444   -23.54666    -3.92444
   339   2     0.00000   -23.54666    -3.92444
   340   2     3.92444   -23.54666    -3.92444
   341   2   -11.77333   -19.62221    -3.92444
   342   1    -7.84889   -19.62221    -3.92444
   343   2    -3.92444   -19.62221    -3.92444
   344   2     0.00000   -19.62221    -3.92444
   345   1     3.92444   -19.62221    -3.92444
   346   1     7.84889   -19.62221    -3.92444
   347   3    11.77333   -19.62221    -3.92444
   348   1   -15.69777   -15.69777    -3.92444
   349   2   -11.77333   -15.69777    -3.92444
   350   1    -7.84889   -15.69777    -3.92444
   351   1    -3.92444   -15.69777    -3.92444
   352   3     0.00000   -15.69777    -3.92444
   353   2     3.92444   -15.69777    -3.92444
   354   2     7.84889   -15.69777    -3.92444
   355   1    11.77333   -15.69777    -3.92444
   356   2    15.69777   -15.69777    -3.92444
   357   2   -19.62221   -11.77333    -3.92444
   358   2   -15.69777   -11.77333    -3.92444
   359   2   -11.77333   -11.77333    -3.92444
   360   3    -7.84889   -11.77333    -3.92444
   361   3    -3.92444   -11.77333    -3.92444
   362   1     0.00000   -11.77333    -3.92444
   363   3     3.92444   -11.77333    -3.92444
   364   3     7.84889   -11.77333    -3.92444
   365   2    11.77333   -11.77333    -3.92444
   366   1    15.69777   -11.77333    -3.92444
   367   2    19.62221   -11.77333    -3.92444
   368   1   -19.62221    -7.84889    -3.92444
   369   3   -15.69777    -7.84889    -3.92444
   370   3   -11.77333    -7.84889    -3.92444
   371   2    -7.84889    -7.84889    -3.92444
   372   2    -3.92444    -7.84889    -3.92444
   373   2     0.00000    -7.84889    -3.92444
   374   3     3.92444    -7.84889    -3.92444
   375   3     7.84889    -7.84889    -3.92444
   376   3    11.77333    -7.84889    -3.92444
   377   1    15.69777    -7.84889    -3.92444
   378   1    19.62221    -7.84889    -3.92444
   379   1   -23.54666    -3.92444    -3.92444
   380   2   -19.62221    -3.92444    -3.92444
   381   1   -15.69777    -3.92444    -3.92444
   382   1   -11.77333    -3.92444    -3.92444
   383   3    -7.84889    -3.92444    -3.92444
   384   3    -3.92444    -3.92444    -3.92444
   385   2     0.00000    -3.92444    -3.92444
   386   2     3.92444    -3.92444    -3.92444
   387   3     7.84889    -3.92444    -3.92444
   388   3    11.77333    -3.92444    -3.92444
   389   2    15.69777    -3.92444    -3.92444
   390   2    19.62221    -3.92444    -3.92444
   391   1    23.54666    -3.92444    -3.92444
   392   1   -23.54666     0.00000    -3.92444
   393   1   -19.62221     0.00000    -3.92444
   394   2   -15.69777     0.00000    -3.92444
   395   3   -11.77333     0.00000    -3.92444
   396   2    -7.84889     0.00000    -3.92444
   397   2    -3.92444     0.00000    -3.92444
   398   3     0.00000     0.00000    -3.92444
   399   3     3.92444     0.00000    -3.92444
   400   1     7.84889     0.00000    -3.92444
   401   2    11.77333     0.00000    -3.92444
   402   2    15.69777     0.00000    -3.92444
   403   2    19.62221     0.00000    -3.92444
   404   1    23.54666     0.00000    -3.92444
   405   2   -23.54666     3.92444    -3.92444
   406   1   -19.62221     3.92444    -3.92444
   407   2   -15.69777     3.92444    -3.92444
   408   3   -11.77333     3.92444    -3.92444
   409   3    -7.84889     3.92444    -3.92444
   410   3    -3.92444     3.92444    -3.92444
   411   3     0.00000     3.92444    -3.92444
   412   1     3.92444     3.92444    -3.92444
   413   2     7.84889     3.92444    -3.92444
   414   2    11.77333     3.92444    -3.92444
   415   2    15.69777     3.92444    -3.92444
   416   2    19.62221     3.92444    -3.92444
   417   1    23.54666     3.92444    -3.92444
   418   3   -19.62221     7.84889    -3.92444
   419   2   -15.69777     7.84889    -3.92444
   420   1   -11.77333     7.84889    -3.92444
   421   3    -7.84889     7.84889    -3.92444
   422   2    -3.92444     7.84889    -3.92444
   423   2     0.00000     7.84889    -3.92444
   424   3     3.92444     7.84889    -3.92444
   425   3     7.84889     7.84889    -3.92444
   426   3    11.77333     7.84889    -3.92444
   427   3    15.69777     7.84889    -3.92444
   428   2    19.62221     7.84889    -3.92444
   429   2   -19.62221    11.77333    -3.92444
   430   3   -15.69777    11.77333    -3.92444
   431   1   -11.77333    11.77333    -3.92444
   432   1    -7.84889    11.77333    -3.92444
   433   2    -3.92444    11.77333    -3.92444
   434   3     0.00000    11.77333    -3.92444
   435   3     3.92444    11.77333    -3.92444
   436   2     7.84889    11.77333    -3.92444
   437   2    11.77333    11.77333    -3.92444
   438   1    15.69777    11.77333    -3.92444
   439   2    19.62221    11.77333    -3.92444
   440   2   -15.69777    15.69777    -3.92444
   441   3   -11.77333    15.69777    -3.92444
   442   2    -7.84889    15.69777    -3.92444
   443   2    -3.92444    15.69777    -3.92444
   444   2     0.00000    15.69777    -3.92444
   445   2     3.92444    15.69777    -3.92444
   446   2     7.84889    15.69777    -3.92444
   447   2    11.77333    15.69777    -3.92444
   448   2    15.69777    15.69777    -3.92444
   449   2   -11.77333    19.62221    -3.92444
   450   2    -7.84889    19.62221    -3.92444
   451   2    -3.92444    19.62221    -3.92444
   452   2     0.00000    19.62221    -3.92444
   453   2     3.92444    19.62221    -3.92444
   454   2     7.84889    19.62221    -3.92444
   455   3    11.77333    19.62221    -3.92444
   456   2    -3.92444    23.54666    -3.92444
   457   2     0.00000    23.54666    -3.92444
   458   1     3.92444    23.54666    -3.92444
   459   2    -7.84889   -23.54666     0.00000
   460   1    -3.92444   -23.54666     0.00000
   461   1     0.00000   -23.54666     0.00000
   462   3     3.92444   -23.54666     0.00000
   463   2     7.84889   -23.54666     0.00000
   464   1   -11.77333   -19.62221     0.00000
   465   1    -7.84889   -19.62221     0.00000
   466   2    -3.92444   -19.62221     0.00000
   467   2     0.00000   -19.62221     0.00000
   468   3     3.92444   -19.62221     0.00000
   469   3     7.84889   -19.62221     0.00000
   470   1    11.77333   -19.62221     0.00000
   471   1   -15.69777   -15.69777     0.00000
   472   1   -11.77333   -15.69777     0.00000
   473   2    -7.84889   -15.69777     0.00000
   474   2    -3.92444   -15.69777     0.00000
   475   1     0.00000   -15.69777     0.00000
   476   3     3.92444   -15.69777     0.00000
   477   3     7.84889   -15.69777     0.00000
   478   2    11.77333   -15.69777     0.00000
   479   2    15.69777   -15.69777     0.00000
   480   2   -19.62221   -11.77333     0.00000
   481   2   -15.69777   -11.77333     0.00000
   482   3   -11.77333   -11.77333     0.00000
   483   2    -7.84889   -11.77333     0.00000
   484   3    -3.92444   -11.77333     0.00000
   485   1     0.00000   -11.77333     0.00000
   486   3     3.92444   -11.77333     0.00000
   487   2     7.84889   -11.77333     0.00000
   488   1    11.77333   -11.77333     0.00000
   489   1    15.69777   -11.77333     0.00000
   490   3    19.62221   -11.77333     0.00000
   491   1   -23.54666    -7.84889     0.00000
   492   2   -19.62221    -7.84889     0.00000
   493   2   -15.69777    -7.84889     0.00000
   494   3   -11.77333    -7.84889     0.00000
   495   1    -7.84889    -7.84889     0.00000
   496   1    -3.92444    -7.84889     0.00000
   497   3     0.00000    -7.84889     0.00000
   498   2     3.92444    -7.84889     0.00000
   499   2     7.84889    -7.84889     0.00000
   500   1    11.77333    -7.84889     0.00000
   501   1    15.69777    -7.84889     0.00000
   502   2    19.62221    -7.84889     0.00000
   503   2    23.54666    -7.84889     0.00000
   504   2   -23.54666    -3.92444     0.00000
   505   3   -19.62221    -3.92444     0.00000
   506   1   -15.69777    -3.92444     0.00000
   507   3   -11.77333    -3.92444     0.00000
   508   3    -7.84889    -3.92444     0.00000
   509   3    -3.92444    -3.92444     0.00000
   510   3     0.00000    -3.92444     0.00000
   511   3     3.92444    -3.92444     0.00000
   512   3     7.84889    -3.92444     0.00000
   513   1    11.77333    -3.92444     0.00000
   514   1    15.69777    -3.92444     0.00000
   515   3    19.62221    -3.92444     0.00000
   516   2    23.54666    -3.92444     0.00000
   517   2   -23.54666     0.00000     0.00000
   518   3   -19.62221     0.00000     0.00000
   519   1   -15.69777     0.00000     0.00000
   520   3   -11.77333     0.00000     0.00000
   521   3    -7.84889     0.00000     0.00000
   522   3    -3.92444     0.00000     0.00000
   523   3     0.00000     0.00000     0.00000
   524   1     3.92444     0.00000     0.00000
   525   1     7.84889     0.00000     0.00000
   526   1    11.77333     0.00000     0.00000
   527   2    15.69777     0.00000     0.00000
   528   1    19.62221     0.00000     0.00000
   529   1    23.54666     0.00000     0.00000
   530   2   -23.54666     3.92444     0.00000
   531   2   -19.62221     3.92444     0.00000
   532   1   -15.69777     3.92444     0.00000
   533   2   -11.77333     3.92444     0.00000
   534   1    -7.84889     3.92444     0.00000
   535   3    -3.92444     3.92444     0.00000
   536   1     0.00000     3.92444     0.00000
   537   3     3.92444     3.92444     0.00000
   538   3     7.84889     3.92444     0.00000
   539   2    11.77333     3.92444     0.00000
   540   1    15.69777     3.92444     0.00000
   541   2    19.62221     3.92444     0.00000
   542   2    23.54666     3.92444     0.00000
   543   3   -23.54666     7.84889     0.00000
   544   2   -19.62221     7.84889     0.00000
   545   2   -15.69777     7.84889     0.00000
   546   1   -11.77333     7.84889     0.00000
   547   3    -7.84889     7.84889     0.00000
   548   1    -3.92444     7.84889     0.00000
   549   3     0.00000     7.84889     0.00000
   550   3     3.92444     7.84889     0.00000
   551   3     7.84889     7.84889     0.00000
   552   1    11.77333     7.84889     0.00000
   553   2    15.69777     7.84889     0.00000
   554   1    19.62221     7.84889     0.00000
   555   1    23.54666     7.84889     0.00000
   556   1   -19.62221    11.77333     0.00000
   557   3   -15.69777    11.77333     0.00000
   558   2   -11.77333    11.77333     0.00000
   559   1    -7.84889    11.77333     0.00000
   560   3    -3.92444    11.77333     0.00000
   561   3     0.00000    11.77333     0.00000
   562   3     3.92444    11.77333     0.00000
   563   3     7.84889    11.77333     0.00000
   564   2    11.77333    11.77333     0.00000
   565   3    15.69777    11.77333     0.00000
   566   2    19.62221    11.77333     0.00000
   567   2   -15.69777    15.69777     0.00000
   568   3   -11.77333    15.69777     0.00000
   569   3    -7.84889    15.69777     0.00000
   570   2    -3.92444    15.69777     0.00000
   571   1     0.00000    15.69777     0.00000
   572   3     3.92444    15.69777     0.00000
   573   2     7.84889    15.69777     0.00000
   574   3    11.77333    15.69777     0.00000
   575   1    15.69777    15.69777     0.00000
   576   1   -11.77333    19.62221     0.00000
   577   2    -7.84889    19.62221     0.00000
   578   1    -3.92444    19.62221     0.00000
   579   3     0.00000    19.62221     0.00000
   580   1     3.92444    19.62221     0.00000
   581   2     7.84889    19.62221     0.00000
   582   3    11.77333    19.62221     0.00000
   583   2    -7.84889    23.54666     0.00000
   584   1    -3.92444    23.54666     0.00000
   585   3     0.00000    23.54666     0.00000
   586   1     3.92444    23.54666     0.00000
   587   2     7.84889    23.54666     0.00000
   588   1    -3.92444   -23.54666     3.92444
   589   2     0.00000   -23.54666     3.92444
   590   2     3.92444   -23.54666     3.92444
   591   2   -11.77333   -19.62221     3.92444
   592   2    -7.84889   -19.62221     3.92444
   593   2    -3.92444   -19.62221     3.92444
   594   1     0.00000   -19.62221     3.92444
   595   2     3.92444   -19.62221     3.92444
   596   3     7.84889   -19.62221     3.92444
   597   1    11.77333   -19.62221     3.92444
   598   1   -15.69777   -15.69777     3.92444
   599   3   -11.77333   -15.69777     3.92444
   600   1    -7.84889   -15.69777     3.92444
   601   3    -3.92444   -15.69777     3.92444
   602   3     0.00000   -15.69777     3.92444
   603   3     3.92444   -15.69777     3.92444
   604   2     7.84889   -15.69777     3.92444
   605   3    11.77333   -15.69777     3.92444
   606   2    15.69777   -15.69777     3.92444
   607   1   -19.62221   -11.77333     3.92444
   608   3   -15.69777   -11.77333     3.92444
   609   3   -11.77333   -11.77333     3.92444
   610   1    -7.84889   -11.77333     3.92444
   611   3    -3.92444   -11.77333     3.92444
   612   3     0.00000   -11.77333     3.92444
   613   2     3.92444   -11.77333     3.92444
   614   3     7.84889   -11.77333     3.92444
   615   2    11.77333   -11.77333     3.92444
   616   3    15.69777   -11.77333     3.92444
   617   1    19.62221   -11.77333     3.92444
   618   2   -19.62221    -7.84889     3.92444
   619   2   -15.69777    -7.84889     3.92444
   620   2   -11.77333    -7.84889     3.92444
   621   3    -7.84889    -7.84889     3.92444
   622   3    -3.92444    -7.84889     3.92444
   623   3     0.00000    -7.84889     3.92444
   624   2     3.92444    -7.84889     3.92444
   625   2     7.84889    -7.84889     3.92444
   626   2    11.77333    -7.84889     3.92444
   627   2    15.69777    -7.84889     3.92444
   628   2    19.62221    -7.84889     3.92444
   629   2   -23.54666    -3.92444     3.92444
   630   2   -19.62221    -3.92444     3.92444
   631   1   -15.69777    -3.92444     3.92444
   632   3   -11.77333    -3.92444     3.92444
   633   2    -7.84889    -3.92444     3.92444
   634   3    -3.92444    -3.92444     3.92444