LAMMPS DATA FOR MEAM SIMULATION

   4321   atoms
      3   atom types

  -33.55   33.55   xlo xhi
  -33.55   33.55   ylo yhi
  -33.55   33.55   zlo zhi

 Atoms

     1   3     0.00000    -7.84889   -23.54666
     2   2    -3.92444    -3.92444   -23.54666
     3   1     0.00000    -3.92444   -23.54666
     4   2     3.92444    -3.92444   -23.54666
     5   1    -7.84889     0.00000   -23.54666
     6   1    -3.92444     0.00000   -23.54666
     7   1     0.00000     0.00000   -23.54666
     8   2     3.92444     0.00000   -23.54666
     9   2     7.84889     0.00000   -23.54666
    10   3    -3.92444     3.92444   -23.54666
    11   2     0.00000     3.92444   -23.54666
    12   2     3.92444     3.92444   -23.54666
    13   3     0.00000     7.84889   -23.54666
    14   1    -7.84889   -11.77333   -19.62221
    15   2    -3.92444   -11.77333   -19.62221
    16   1     0.00000   -11.77333   -19.62221
    17   2     3.92444   -11.77333   -19.62221
    18   2     7.84889   -11.77333   -19.62221
    19   3   -11.77333    -7.84889   -19.62221
    20   1    -7.84889    -7.84889   -19.62221
    21   1    -3.92444    -7.84889   -19.62221
    22   2     0.00000    -7.84889   -19.62221
    23   2     3.92444    -7.84889   -19.62221
    24   2     7.84889    -7.84889   -19.62221
    25   1    11.77333    -7.84889   -19.62221
    26   1   -11.77333    -3.92444   -19.62221
    27   2    -7.84889    -3.92444   -19.62221
    28   1    -3.92444    -3.92444   -19.62221
    29   1     0.00000    -3.92444   -19.62221
    30   2     3.92444    -3.92444   -19.62221
    31   2     7.84889    -3.92444   -19.62221
    32   3    11.77333    -3.92444   -19.62221
    33   1   -11.77333     0.00000   -19.62221
    34   2    -7.84889     0.00000   -19.62221
    35   2    -3.92444     0.00000   -19.62221
    36   1     0.00000     0.00000   -19.62221
    37   2     3.92444     0.00000   -19.62221
    38   2     7.84889     0.00000   -19.62221
    39   1    11.77333     0.00000   -19.62221
    40   2   -11.77333     3.92444   -19.62221
    41   1    -7.84889     3.92444   -19.62221
    42   2    -3.92444     3.92444   -19.62221
    43   1     0.00000     3.92444   -19.62221
    44   1     3.92444     3.92444   -19.62221
    45   2     7.84889     3.92444   -19.62221
    46   2    11.77333     3.92444   -19.62221
    47   3   -11.77333     7.84889   -19.62221
    48   1    -7.84889     7.84889   -19.62221
    49   1    -3.92444     7.84889   -19.62221
    50   2     0.00000     7.84889   -19.62221
    51   2     3.92444     7.84889   -19.62221
    52   3     7.84889     7.84889   -19.62221
    53   2    11.77333     7.84889   -19.62221
    54   1    -7.84889    11.77333   -19.62221
    55   3    -3.92444    11.77333   -19.62221
    56   3     0.00000    11.77333   -19.62221
    57   1     3.92444    11.77333   -19.62221
    58   3     7.84889    11.77333   -19.62221
    59   1    -7.84889   -15.69777   -15.69777
    60   3    -3.92444   -15.69777   -15.69777
    61   3     0.00000   -15.69777   -15.69777
    62   2     3.92444   -15.69777   -15.69777
    63   3     7.84889   -15.69777   -15.69777
    64   1   -11.77333   -11.77333   -15.69777
    65   3    -7.84889   -11.77333   -15.69777
    66   1    -3.92444   -11.77333   -15.69777
    67   2     0.00000   -11.77333   -15.69777
    68   1     3.92444   -11.77333   -15.69777
    69   1     7.84889   -11.77333   -15.69777
    70   1    11.77333   -11.77333   -15.69777
    71   2   -15.69777    -7.84889   -15.69777
    72   2   -11.77333    -7.84889   -15.69777
    73   2    -7.84889    -7.84889   -15.69777
    74   2    -3.92444    -7.84889   -15.69777
    75   1     0.00000    -7.84889   -15.69777
    76   2     3.92444    -7.84889   -15.69777
    77   2     7.84889    -7.84889   -15.69777
    78   2    11.77333    -7.84889   -15.69777
    79   2    15.69777    -7.84889   -15.69777
    80   2   -15.69777    -3.92444   -15.69777
    81   2   -11.77333    -3.92444   -15.69777
    82   2    -7.84889    -3.92444   -15.69777
    83   2    -3.92444    -3.92444   -15.69777
    84   2     0.00000    -3.92444   -15.69777
    85   3     3.92444    -3.92444   -15.69777
    86   3     7.84889    -3.92444   -15.69777
    87   2    11.77333    -3.92444   -15.69777
    88   3    15.69777    -3.92444   -15.69777
    89   1   -15.69777     0.00000   -15.69777
    90   2   -11.77333     0.00000   -15.69777
    91   1    -7.84889     0.00000   -15.69777
    92   3    -3.92444     0.00000   -15.69777
    93   1     0.00000     0.00000   -15.69777
    94   2     3.92444     0.00000   -15.69777
    95   2     7.84889     0.00000   -15.69777
    96   2    11.77333     0.00000   -15.69777
    97   2    15.69777     0.00000   -15.69777
    98   1   -15.69777     3.92444   -15.69777
    99   1   -11.77333     3.92444   -15.69777
   100   1    -7.84889     3.92444   -15.69777
   101   1    -3.92444     3.92444   -15.69777
   102   2     0.00000     3.92444   -15.69777
   103   1     3.92444     3.92444   -15.69777
   104   1     7.84889     3.92444   -15.69777
   105   2    11.77333     3.92444   -15.69777
   106   1    15.69777     3.92444   -15.69777
   107   2   -15.69777     7.84889   -15.69777
   108   1   -11.77333     7.84889   -15.69777
   109   1    -7.84889     7.84889   -15.69777
   110   2    -3.92444     7.84889   -15.69777
   111   2     0.00000     7.84889   -15.69777
   112   2     3.92444     7.84889   -15.69777
   113   3     7.84889     7.84889   -15.69777
   114   1    11.77333     7.84889   -15.69777
   115   1    15.69777     7.84889   -15.69777
   116   3   -11.77333    11.77333   -15.69777
   117   1    -7.84889    11.77333   -15.69777
   118   2    -3.92444    11.77333   -15.69777
   119   1     0.00000    11.77333   -15.69777
   120   1     3.92444    11.77333   -15.69777
   121   2     7.84889    11.77333   -15.69777
   122   2    11.77333    11.77333   -15.69777
   123   1    -7.84889    15.69777   -15.69777
   124   1    -3.92444    15.69777   -15.69777
   125   2     0.00000    15.69777   -15.69777
   126   3     3.92444    15.69777   -15.69777
   127   2     7.84889    15.69777   -15.69777
   128   2    -7.84889   -19.62221   -11.77333
   129   2    -3.92444   -19.62221   -11.77333
   130   2     0.00000   -19.62221   -11.77333
   131   3     3.92444   -19.62221   -11.77333
   132   2     7.84889   -19.62221   -11.77333
   133   3   -11.77333   -15.69777   -11.77333
   134   1    -7.84889   -15.69777   -11.77333
   135   2    -3.92444   -15.69777   -11.77333
   136   2     0.00000   -15.69777   -11.77333
   137   3     3.92444   -15.69777   -11.77333
   138   2     7.84889   -15.69777   -11.77333
   139   1    11.77333   -15.69777   -11.77333
   140   2   -15.69777   -11.77333   -11.77333
   141   3   -11.77333   -11.77333   -11.77333
   142   1    -7.84889   -11.77333   -11.77333
   143   3    -3.92444   -11.77333   -11.77333
   144   3     0.00000   -11.77333   -11.77333
   145   2     3.92444   -11.77333   -11.77333
   146   3     7.84889   -11.77333   -11.77333
   147   1    11.77333   -11.77333   -11.77333
   148   3    15.69777   -11.77333   -11.77333
   149   2   -19.62221    -7.84889   -11.77333
   150   2   -15.69777    -7.84889   -11.77333
   151   1   -11.77333    -7.84889   -11.77333
   152   2    -7.84889    -7.84889   -11.77333
   153   1    -3.92444    -7.84889   -11.77333
   154   3     0.00000    -7.84889   -11.77333
   155   3     3.92444    -7.84889   -11.77333
   156   2     7.84889    -7.84889   -11.77333
   157   3    11.77333    -7.84889   -11.77333
   158   3    15.69777    -7.84889   -11.77333
   159   1    19.62221    -7.84889   -11.77333
   160   3   -19.62221    -3.92444   -11.77333
   161   3   -15.69777    -3.92444   -11.77333
   162   2   -11.77333    -3.92444   -11.77333
   163   1    -7.84889    -3.92444   -11.77333
   164   1    -3.92444    -3.92444   -11.77333
   165   2     0.00000    -3.92444   -11.77333
   166   2     3.92444    -3.92444   -11.77333
   167   2     7.84889    -3.92444   -11.77333
   168   2    11.77333    -3.92444   -11.77333
   169   2    15.69777    -3.92444   -11.77333
   170   3    19.62221    -3.92444   -11.77333
   171   3   -19.62221     0.00000   -11.77333
   172   2   -15.69777     0.00000   -11.77333
   173   2   -11.77333     0.00000   -11.77333
   174   2    -7.84889     0.00000   -11.77333
   175   2    -3.92444     0.00000   -11.77333
   176   2     0.00000     0.00000   -11.77333
   177   2     3.92444     0.00000   -11.77333
   178   3     7.84889     0.00000   -11.77333
   179   1    11.77333     0.00000   -11.77333
   180   3    15.69777     0.00000   -11.77333
   181   2    19.62221     0.00000   -11.77333
   182   2   -19.62221     3.92444   -11.77333
   183   3   -15.69777     3.92444   -11.77333
   184   1   -11.77333     3.92444   -11.77333
   185   1    -7.84889     3.92444   -11.77333
   186   2    -3.92444     3.92444   -11.77333
   187   3     0.00000     3.92444   -11.77333
   188   2     3.92444     3.92444   -11.77333
   189   2     7.84889     3.92444   -11.77333
   190   3    11.77333     3.92444   -11.77333
   191   2    15.69777     3.92444   -11.77333
   192   2    19.62221     3.92444   -11.77333
   193   3   -19.62221     7.84889   -11.77333
   194   3   -15.69777     7.84889   -11.77333
   195   2   -11.77333     7.84889   -11.77333
   196   3    -7.84889     7.84889   -11.77333
   197   1    -3.92444     7.84889   -11.77333
   198   1     0.00000     7.84889   -11.77333
   199   3     3.92444     7.84889   -11.77333
   200   1     7.84889     7.84889   -11.77333
   201   3    11.77333     7.84889   -11.77333
   202   3    15.69777     7.84889   -11.77333
   203   3    19.62221     7.84889   -11.77333
   204   3   -15.69777    11.77333   -11.77333
   205   2   -11.77333    11.77333   -11.77333
   206   1    -7.84889    11.77333   -11.77333
   207   3    -3.92444    11.77333   -11.77333
   208   1     0.00000    11.77333   -11.77333
   209   2     3.92444    11.77333   -11.77333
   210   2     7.84889    11.77333   -11.77333
   211   1    11.77333    11.77333   -11.77333
   212   2    15.69777    11.77333   -11.77333
   213   1   -11.77333    15.69777   -11.77333
   214   2    -7.84889    15.69777   -11.77333
   215   3    -3.92444    15.69777   -11.77333
   216   2     0.00000    15.69777   -11.77333
   217   1     3.92444    15.69777   -11.77333
   218   2     7.84889    15.69777   -11.77333
   219   2    11.77333    15.69777   -11.77333
   220   1    -7.84889    19.62221   -11.77333
   221   1    -3.92444    19.62221   -11.77333
   222   1     0.00000    19.62221   -11.77333
   223   3     3.92444    19.62221   -11.77333
   224   2     7.84889    19.62221   -11.77333
   225   2     0.00000   -23.54666    -7.84889
   226   2   -11.77333   -19.62221    -7.84889
   227   1    -7.84889   -19.62221    -7.84889
   228   1    -3.92444   -19.62221    -7.84889
   229   2     0.00000   -19.62221    -7.84889
   230   2     3.92444   -19.62221    -7.84889
   231   2     7.84889   -19.62221    -7.84889
   232   1    11.77333   -19.62221    -7.84889
   233   1   -15.69777   -15.69777    -7.84889
   234   2   -11.77333   -15.69777    -7.84889
   235   2    -7.84889   -15.69777    -7.84889
   236   1    -3.92444   -15.69777    -7.84889
   237   1     0.00000   -15.69777    -7.84889
   238   2     3.92444   -15.69777    -7.84889
   239   2     7.84889   -15.69777    -7.84889
   240   3    11.77333   -15.69777    -7.84889
   241   3    15.69777   -15.69777    -7.84889
   242   1   -19.62221   -11.77333    -7.84889
   243   3   -15.69777   -11.77333    -7.84889
   244   3   -11.77333   -11.77333    -7.84889
   245   2    -7.84889   -11.77333    -7.84889
   246   1    -3.92444   -11.77333    -7.84889
   247   2     0.00000   -11.77333    -7.84889
   248   2     3.92444   -11.77333    -7.84889
   249   1     7.84889   -11.77333    -7.84889
   250   2    11.77333   -11.77333    -7.84889
   251   2    15.69777   -11.77333    -7.84889
   252   1    19.62221   -11.77333    -7.84889
   253   1   -19.62221    -7.84889    -7.84889
   254   2   -15.69777    -7.84889    -7.84889
   255   2   -11.77333    -7.84889    -7.84889
   256   2    -7.84889    -7.84889    -7.84889
   257   1    -3.92444    -7.84889    -7.84889
   258   3     0.00000    -7.84889    -7.84889
   259   2     3.92444    -7.84889    -7.84889
   260   2     7.84889    -7.84889    -7.84889
   261   3    11.77333    -7.84889    -7.84889
   262   2    15.69777    -7.84889    -7.84889
   263   3    19.62221    -7.84889    -7.84889
   264   2   -19.62221    -3.92444    -7.84889
   265   2   -15.69777    -3.92444    -7.84889
   266   3   -11.77333    -3.92444    -7.84889
   267   1    -7.84889    -3.92444    -7.84889
   268   3    -3.92444    -3.92444    -7.84889
   269   2     0.00000    -3.92444    -7.84889
   270   3     3.92444    -3.92444    -7.84889
   271   2     7.84889    -3.92444    -7.84889
   272   3    11.77333    -3.92444    -7.84889
   273   2    15.69777    -3.92444    -7.84889
   274   3    19.62221    -3.92444    -7.84889
   275   2   -23.54666     0.00000    -7.84889
   276   1   -19.62221     0.00000    -7.84889
   277   3   -15.69777     0.00000    -7.84889
   278   2   -11.77333     0.00000    -7.84889
   279   2    -7.84889     0.00000    -7.84889
   280   2    -3.92444     0.00000    -7.84889
   281   3     0.00000     0.00000    -7.84889
   282   3     3.92444     0.00000    -7.84889
   283   2     7.84889     0.00000    -7.84889
   284   1    11.77333     0.00000    -7.84889
   285   3    15.69777     0.00000    -7.84889
   286   3    19.62221     0.00000    -7.84889
   287   2    23.54666     0.00000    -7.84889
   288   3   -19.62221     3.92444    -7.84889
   289   2   -15.69777     3.92444    -7.84889
   290   3   -11.77333     3.92444    -7.84889
   291   3    -7.84889     3.92444    -7.84889
   292   2    -3.92444     3.92444    -7.84889
   293   1     0.00000     3.92444    -7.84889
   294   2     3.92444     3.92444    -7.84889
   295   3     7.84889     3.92444    -7.84889
   296   2    11.77333     3.92444    -7.84889
   297   1    15.69777     3.92444    -7.84889
   298   2    19.62221     3.92444    -7.84889
   299   2   -19.62221     7.84889    -7.84889
   300   1   -15.69777     7.84889    -7.84889
   301   2   -11.77333     7.84889    -7.84889
   302   3    -7.84889     7.84889    -7.84889
   303   2    -3.92444     7.84889    -7.84889
   304   1     0.00000     7.84889    -7.84889
   305   3     3.92444     7.84889    -7.84889
   306   2     7.84889     7.84889    -7.84889
   307   3    11.77333     7.84889    -7.84889
   308   2    15.69777     7.84889    -7.84889
   309   1    19.62221     7.84889    -7.84889
   310   3   -19.62221    11.77333    -7.84889
   311   2   -15.69777    11.77333    -7.84889
   312   3   -11.77333    11.77333    -7.84889
   313   3    -7.84889    11.77333    -7.84889
   314   1    -3.92444    11.77333    -7.84889
   315   1     0.00000    11.77333    -7.84889
   316   1     3.92444    11.77333    -7.84889
   317   3     7.84889    11.77333    -7.84889
   318   3    11.77333    11.77333    -7.84889
   319   1    15.69777    11.77333    -7.84889
   320   2    19.62221    11.77333    -7.84889
   321   2   -15.69777    15.69777    -7.84889
   322   2   -11.77333    15.69777    -7.84889
   323   3    -7.84889    15.69777    -7.84889
   324   2    -3.92444    15.69777    -7.84889
   325   3     0.00000    15.69777    -7.84889
   326   1     3.92444    15.69777    -7.84889
   327   2     7.84889    15.69777    -7.84889
   328   2    11.77333    15.69777    -7.84889
   329   3    15.69777    15.69777    -7.84889
   330   1   -11.77333    19.62221    -7.84889
   331   3    -7.84889    19.62221    -7.84889
   332   1    -3.92444    19.62221    -7.84889
   333   3     0.00000    19.62221    -7.84889
   334   1     3.92444    19.62221    -7.84889
   335   2     7.84889    19.62221    -7.84889
   336   1    11.77333    19.62221    -7.84889
   337   2     0.00000    23.54666    -7.84889
   338   2    -3.92444   -23.54666    -3.92444
   339   3     0.00000   -23.54666    -3.92444
   340   2     3.92444   -23.54666    -3.92444
   341   1   -11.77333   -19.62221    -3.92444
   342   3    -7.84889   -19.62221    -3.92444
   343   1    -3.92444   -19.62221    -3.92444
   344   1     0.00000   -19.62221    -3.92444
   345   1     3.92444   -19.62221    -3.92444
   346   1     7.84889   -19.62221    -3.92444
   347   3    11.77333   -19.62221    -3.92444
   348   1   -15.69777   -15.69777    -3.92444
   349   3   -11.77333   -15.69777    -3.92444
   350   3    -7.84889   -15.69777    -3.92444
   351   3    -3.92444   -15.69777    -3.92444
   352   2     0.00000   -15.69777    -3.92444
   353   1     3.92444   -15.69777    -3.92444
   354   2     7.84889   -15.69777    -3.92444
   355   2    11.77333   -15.69777    -3.92444
   356   3    15.69777   -15.69777    -3.92444
   357   3   -19.62221   -11.77333    -3.92444
   358   2   -15.69777   -11.77333    -3.92444
   359   1   -11.77333   -11.77333    -3.92444
   360   3    -7.84889   -11.77333    -3.92444
   361   1    -3.92444   -11.77333    -3.92444
   362   1     0.00000   -11.77333    -3.92444
   363   2     3.92444   -11.77333    -3.92444
   364   2     7.84889   -11.77333    -3.92444
   365   2    11.77333   -11.77333    -3.92444
   366   2    15.69777   -11.77333    -3.92444
   367   1    19.62221   -11.77333    -3.92444
   368   2   -19.62221    -7.84889    -3.92444
   369   1   -15.69777    -7.84889    -3.92444
   370   2   -11.77333    -7.84889    -3.92444
   371   2    -7.84889    -7.84889    -3.92444
   372   2    -3.92444    -7.84889    -3.92444
   373   2     0.00000    -7.84889    -3.92444
   374   2     3.92444    -7.84889    -3.92444
   375   2     7.84889    -7.84889    -3.92444
   376   1    11.77333    -7.84889    -3.92444
   377   1    15.69777    -7.84889    -3.92444
   378   2    19.62221    -7.84889    -3.92444
   379   1   -23.54666    -3.92444    -3.92444
   380   1   -19.62221    -3.92444    -3.92444
   381   1   -15.69777    -3.92444    -3.92444
   382   1   -11.77333    -3.92444    -3.92444
   383   1    -7.84889    -3.92444    -3.92444
   384   2    -3.92444    -3.92444    -3.92444
   385   1     0.00000    -3.92444    -3.92444
   386   1     3.92444    -3.92444    -3.92444
   387   1     7.84889    -3.92444    -3.92444
   388   3    11.77333    -3.92444    -3.92444
   389   3    15.69777    -3.92444    -3.92444
   390   1    19.62221    -3.92444    -3.92444
   391   3    23.54666    -3.92444    -3.92444
   392   2   -23.54666     0.00000    -3.92444
   393   3   -19.62221     0.00000    -3.92444
   394   3   -15.69777     0.00000    -3.92444
   395   2   -11.77333     0.00000    -3.92444
   396   3    -7.84889     0.00000    -3.92444
   397   2    -3.92444     0.00000    -3.92444
   398   2     0.00000     0.00000    -3.92444
   399   3     3.92444     0.00000    -3.92444
   400   2     7.84889     0.00000    -3.92444
   401   2    11.77333     0.00000    -3.92444
   402   2    15.69777     0.00000    -3.92444
   403   2    19.62221     0.00000    -3.92444
   404   3    23.54666     0.00000    -3.92444
   405   3   -23.54666     3.92444    -3.92444
   406   1   -19.62221     3.92444    -3.92444
   407   3   -15.69777     3.92444    -3.92444
   408   2   -11.77333     3.92444    -3.92444
   409   2    -7.84889     3.92444    -3.92444
   410   1    -3.92444     3.92444    -3.92444
   411   2     0.00000     3.92444    -3.92444
   412   2     3.92444     3.92444    -3.92444
   413   2     7.84889     3.92444    -3.92444
   414   3    11.77333     3.92444    -3.92444
   415   2    15.69777     3.92444    -3.92444
   416   2    19.62221     3.92444    -3.92444
   417   1    23.54666     3.92444    -3.92444
   418   2   -19.62221     7.84889    -3.92444
   419   2   -15.69777     7.84889    -3.92444
   420   2   -11.77333     7.84889    -3.92444
   421   2    -7.84889     7.84889    -3.92444
   422   2    -3.92444     7.84889    -3.92444
   423   2     0.00000     7.84889    -3.92444
   424   1     3.92444     7.84889    -3.92444
   425   2     7.84889     7.84889    -3.92444
   426   3    11.77333     7.84889    -3.92444
   427   2    15.69777     7.84889    -3.92444
   428   2    19.62221     7.84889    -3.92444
   429   2   -19.62221    11.77333    -3.92444
   430   1   -15.69777    11.77333    -3.92444
   431   3   -11.77333    11.77333    -3.92444
   432   1    -7.84889    11.77333    -3.92444
   433   3    -3.92444    11.77333    -3.92444
   434   1     0.00000    11.77333    -3.92444
   435   1     3.92444    11.77333    -3.92444
   436   1     7.84889    11.77333    -3.92444
   437   3    11.77333    11.77333    -3.92444
   438   2    15.69777    11.77333    -3.92444
   439   2    19.62221    11.77333    -3.92444
   440   2   -15.69777    15.69777    -3.92444
   441   3   -11.77333    15.69777    -3.92444
   442   3    -7.84889    15.69777    -3.92444
   443   3    -3.92444    15.69777    -3.92444
   444   1     0.00000    15.69777    -3.92444
   445   2     3.92444    15.69777    -3.92444
   446   2     7.84889    15.69777    -3.92444
   447   2    11.77333    15.69777    -3.92444
   448   2    15.69777    15.69777    -3.92444
   449   1   -11.77333    19.62221    -3.92444
   450   2    -7.84889    19.62221    -3.92444
   451   3    -3.92444    19.62221    -3.92444
   452   2     0.00000    19.62221    -3.92444
   453   3     3.92444    19.62221    -3.92444
   454   3     7.84889    19.62221    -3.92444
   455   2    11.77333    19.62221    -3.92444
   456   3    -3.92444    23.54666    -3.92444
   457   2     0.00000    23.54666    -3.92444
   458   2     3.92444    23.54666    -3.92444
   459   2    -7.84889   -23.54666     0.00000
   460   1    -3.92444   -23.54666     0.00000
   461   3     0.00000   -23.54666     0.00000
   462   1     3.92444   -23.54666     0.00000
   463   2     7.84889   -23.54666     0.00000
   464   3   -11.77333   -19.62221     0.00000
   465   1    -7.84889   -19.62221     0.00000
   466   1    -3.92444   -19.62221     0.00000
   467   3     0.00000   -19.62221     0.00000
   468   3     3.92444   -19.62221     0.00000
   469   2     7.84889   -19.62221     0.00000
   470   2    11.77333   -19.62221     0.00000
   471   2   -15.69777   -15.69777     0.00000
   472   2   -11.77333   -15.69777     0.00000
   473   3    -7.84889   -15.69777     0.00000
   474   2    -3.92444   -15.69777     0.00000
   475   3     0.00000   -15.69777     0.00000
   476   1     3.92444   -15.69777     0.00000
   477   3     7.84889   -15.69777     0.00000
   478   1    11.77333   -15.69777     0.00000
   479   2    15.69777   -15.69777     0.00000
   480   2   -19.62221   -11.77333     0.00000
   481   2   -15.69777   -11.77333     0.00000
   482   3   -11.77333   -11.77333     0.00000
   483   3    -7.84889   -11.77333     0.00000
   484   1    -3.92444   -11.77333     0.00000
   485   3     0.00000   -11.77333     0.00000
   486   2     3.92444   -11.77333     0.00000
   487   3     7.84889   -11.77333     0.00000
   488   1    11.77333   -11.77333     0.00000
   489   1    15.69777   -11.77333     0.00000
   490   2    19.62221   -11.77333     0.00000
   491   2   -23.54666    -7.84889     0.00000
   492   3   -19.62221    -7.84889     0.00000
   493   3   -15.69777    -7.84889     0.00000
   494   3   -11.77333    -7.84889     0.00000
   495   2    -7.84889    -7.84889     0.00000
   496   2    -3.92444    -7.84889     0.00000
   497   1     0.00000    -7.84889     0.00000
   498   3     3.92444    -7.84889     0.00000
   499   2     7.84889    -7.84889     0.00000
   500   3    11.77333    -7.84889     0.00000
   501   1    15.69777    -7.84889     0.00000
   502   2    19.62221    -7.84889     0.00000
   503   2    23.54666    -7.84889     0.00000
   504   3   -23.54666    -3.92444     0.00000
   505   2   -19.62221    -3.92444     0.00000
   506   2   -15.69777    -3.92444     0.00000
   507   2   -11.77333    -3.92444     0.00000
   508   2    -7.84889    -3.92444     0.00000
   509   3    -3.92444    -3.92444     0.00000
   510   2     0.00000    -3.92444     0.00000
   511   2     3.92444    -3.92444     0.00000
   512   1     7.84889    -3.92444     0.00000
   513   1    11.77333    -3.92444     0.00000
   514   3    15.69777    -3.92444     0.00000
   515   3    19.62221    -3.92444     0.00000
   516   2    23.54666    -3.92444     0.00000
   517   1   -23.54666     0.00000     0.00000
   518   2   -19.62221     0.00000     0.00000
   519   2   -15.69777     0.00000     0.00000
   520   1   -11.77333     0.00000     0.00000
   521   3    -7.84889     0.00000     0.00000
   522   2    -3.92444     0.00000     0.00000
   523   2     0.00000     0.00000     0.00000
   524   1     3.92444     0.00000     0.00000
   525   3     7.84889     0.00000     0.00000
   526   3    11.77333     0.00000     0.00000
   527   3    15.69777     0.00000     0.00000
   528   3    19.62221     0.00000     0.00000
   529   3    23.54666     0.00000     0.00000
   530   1   -23.54666     3.92444     0.00000
   531   2   -19.62221     3.92444     0.00000
   532   1   -15.69777     3.92444     0.00000
   533   3   -11.77333     3.92444     0.00000
   534   2    -7.84889     3.92444     0.00000
   535   2    -3.92444     3.92444     0.00000
   536   1     0.00000     3.92444     0.00000
   537   1     3.92444     3.92444     0.00000
   538   2     7.84889     3.92444     0.00000
   539   1    11.77333     3.92444     0.00000
   540   3    15.69777     3.92444     0.00000
   541   2    19.62221     3.92444     0.00000
   542   2    23.54666     3.92444     0.00000
   543   3   -23.54666     7.84889     0.00000
   544   3   -19.62221     7.84889     0.00000
   545   1   -15.69777     7.84889     0.00000
   546   2   -11.77333     7.84889     0.00000
   547   2    -7.84889     7.84889     0.00000
   548   2    -3.92444     7.84889     0.00000
   549   1     0.00000     7.84889     0.00000
   550   3     3.92444     7.84889     0.00000
   551   3     7.84889     7.84889     0.00000
   552   3    11.77333     7.84889     0.00000
   553   2    15.69777     7.84889     0.00000
   554   2    19.62221     7.84889     0.00000
   555   1    23.54666     7.84889     0.00000
   556   1   -19.62221    11.77333     0.00000
   557   1   -15.69777    11.77333     0.00000
   558   3   -11.77333    11.77333     0.00000
   559   3    -7.84889    11.77333     0.00000
   560   2    -3.92444    11.77333     0.00000
   561   3     0.00000    11.77333     0.00000
   562   2     3.92444    11.77333     0.00000
   563   2     7.84889    11.77333     0.00000
   564   2    11.77333    11.77333     0.00000
   565   2    15.69777    11.77333     0.00000
   566   3    19.62221    11.77333     0.00000
   567   3   -15.69777    15.69777     0.00000
   568   3   -11.77333    15.69777     0.00000
   569   2    -7.84889    15.69777     0.00000
   570   2    -3.92444    15.69777     0.00000
   571   1     0.00000    15.69777     0.00000
   572   2     3.92444    15.69777     0.00000
   573   1     7.84889    15.69777     0.00000
   574   3    11.77333    15.69777     0.00000
   575   3    15.69777    15.69777     0.00000
   576   2   -11.77333    19.62221     0.00000
   577   3    -7.84889    19.62221     0.00000
   578   2    -3.92444    19.62221     0.00000
   579   1     0.00000    19.62221     0.00000
   580   1     3.92444    19.62221     0.00000
   581   3     7.84889    19.62221     0.00000
   582   3    11.77333    19.62221     0.00000
   583   3    -7.84889    23.54666     0.00000
   584   3    -3.92444    23.54666     0.00000
   585   1     0.00000    23.54666     0.00000
   586   2     3.92444    23.54666     0.00000
   587   3     7.84889    23.54666     0.00000
   588   2    -3.92444   -23.54666     3.92444
   589   1     0.00000   -23.54666     3.92444
   590   2     3.92444   -23.54666     3.92444
   591   2   -11.77333   -19.62221     3.92444
   592   3    -7.84889   -19.62221     3.92444
   593   1    -3.92444   -19.62221     3.92444
   594   1     0.00000   -19.62221     3.92444
   595   2     3.92444   -19.62221     3.92444
   596   2     7.84889   -19.62221     3.92444
   597   2    11.77333   -19.62221     3.92444
   598   2   -15.69777   -15.69777     3.92444
   599   2   -11.77333   -15.69777     3.92444
   600   2    -7.84889   -15.69777     3.92444
   601   3    -3.92444   -15.69777     3.92444
   602   2     0.00000   -15.69777     3.92444
   603   3     3.92444   -15.69777     3.92444
   604   1     7.84889   -15.69777     3.92444
   605   3    11.77333   -15.69777     3.92444
   606   2    15.69777   -15.69777     3.92444
   607   2   -19.62221   -11.77333     3.92444
   608   3   -15.69777   -11.77333     3.92444
   609   1   -11.77333   -11.77333     3.92444
   610   3    -7.84889   -11.77333     3.92444
   611   2    -3.92444   -11.77333     3.92444
   612   2     0.00000   -11.77333     3.92444
   613   1     3.92444   -11.77333     3.92444
   614   2     7.84889   -11.77333     3.92444
   615   2    11.77333   -11.77333     3.92444
   616   2    15.69777   -11.77333     3.92444
   617   3    19.62221   -11.77333     3.92444
   618   2   -19.62221    -7.84889     3.92444
   619   3   -15.69777    -7.84889     3.92444
   620   3   -11.77333    -7.84889     3.92444
   621   3    -7.84889    -7.84889     3.92444
   622   3    -3.92444    -7.84889     3.92444
   623   2     0.00000    -7.84889     3.92444
   624   3     3.92444    -7.84889     3.92444
   625   2     7.84889    -7.84889     3.92444
   626   2    11.77333    -7.84889     3.92444
   627   2    15.69777    -7.84889     3.92444
   628   1    19.62221    -7.84889     3.92444
   629   3   -23.54666    -3.92444     3.92444
   630   2   -19.62221    -3.92444     3.92444
   631   2   -15.69777    -3.92444     3.92444
   632   2   -11.77333    -3.92444     3.92444
   633   2    -7.84889    -3.92444     3.92444
   634   3    -3.92444    -3.92444     3.92444