4321
 Atoms. Timestep: 4193
3 -0.161 -7.5289 -22.703
2 -3.95871 -3.68447 -22.7204
1 -0.0387072 -3.72239 -22.698
2 3.54431 -3.76792 -22.9351
1 -7.47501 0.0118855 -22.672
1 -3.61827 0.153023 -22.9707
1 -0.0854093 0.073645 -22.8491
2 3.72041 0.0790699 -22.9213
2 7.42447 0.236031 -22.7517
3 -3.77456 3.95919 -22.7521
2 0.00541533 3.98825 -22.7421
2 3.71739 4.04416 -22.8961
3 0.0565027 7.68567 -22.7469
1 -7.74979 -11.4355 -19.0718
2 -4.17157 -11.5938 -19.2326
1 -0.096977 -11.7677 -19.6186
2 4.10563 -11.5404 -19.187
2 7.70601 -11.3212 -19.0478
3 -11.3106 -7.70788 -19.013
1 -7.65711 -7.68892 -19.1915
1 -4.00086 -7.42226 -19.1644
2 -0.00571285 -7.38948 -19.0627
2 3.756 -7.72726 -19.1854
2 7.58177 -7.5825 -19.099
1 11.3966 -7.46046 -19.0574
1 -11.5131 -3.87822 -19.2336
2 -7.78788 -3.7571 -19.0002
1 -3.87166 -3.79595 -19.1021
1 -0.0747682 -3.68223 -19.1437
2 3.76268 -3.78825 -19.2312
2 7.49837 -3.73633 -19.2025
3 11.6621 -3.54088 -18.84
1 -11.421 0.207245 -19.2947
2 -7.67612 0.0294665 -19.0963
2 -3.79308 0.0626404 -19.1002
1 0.118865 0.167456 -19.1997
2 3.81122 0.0258925 -19.1973
2 7.54033 -0.0716748 -19.2555
1 11.598 0.126391 -19.274
2 -11.4765 4.12994 -19.208
1 -7.60405 3.96652 -19.1867
2 -3.76092 3.98639 -19.095
1 0.0371921 4.04518 -19.1759
1 3.85799 4.06828 -19.2351
2 7.78407 3.99056 -19.3895
2 11.6014 4.23761 -19.3802
3 -11.5526 7.89555 -19.0465
1 -7.61075 7.75691 -19.1835
1 -3.80656 7.83651 -19.0966
2 -0.0318199 7.86869 -19.249
2 3.7697 7.92377 -19.2715
3 7.46164 7.79112 -19.2672
2 11.4883 8.00198 -19.2161
1 -7.89041 11.6752 -19.346
3 -3.96472 11.5661 -19.1562
3 -0.0208053 11.7477 -19.2106
1 3.89886 12.1356 -19.559
3 7.73743 11.7341 -19.2085
1 -8.05295 -15.4319 -15.4722
3 -3.8716 -15.2619 -15.3549
3 -0.0340664 -15.127 -15.1665
2 3.6968 -15.3659 -15.303
3 7.66684 -15.0944 -15.1591
1 -11.4355 -11.3948 -15.2921
3 -7.74728 -11.4705 -15.306
1 -3.8804 -11.2218 -15.2706
2 -0.0875911 -11.3399 -15.2587
1 3.8311 -11.2251 -15.3021
1 7.71508 -11.2599 -15.2461
1 11.5571 -11.3553 -15.3808
2 -15.4256 -8.02387 -15.7951
2 -11.33 -7.65144 -15.2953
2 -7.74479 -7.67784 -15.2968
2 -3.9239 -7.63345 -15.3291
1 -0.00153449 -7.5014 -15.2297
2 3.74449 -7.48781 -15.293
2 7.6721 -7.51307 -15.2405
2 11.4167 -7.58035 -15.0423
2 15.1471 -7.63005 -14.9966
2 -15.2205 -3.7383 -15.342
2 -11.4583 -3.80013 -15.1939
2 -7.58846 -3.82156 -15.3337
2 -3.95324 -3.79626 -15.403
2 -0.0804962 -3.68977 -15.4186
3 3.75602 -3.80713 -15.3548
3 7.73429 -3.78421 -15.3597
2 11.3267 -3.69221 -15.3932
3 15.2043 -3.80288 -15.215
1 -15.1792 0.161607 -15.3076
2 -11.3396 0.102215 -15.3344
1 -7.66734 0.106057 -15.322
3 -3.96106 0.0465945 -15.2786
1 -0.0565064 0.103636 -15.2822
2 3.88317 0.135388 -15.3333
2 7.53423 0.100479 -15.2386
2 11.4051 0.0453975 -15.2834
2 14.9666 0.126305 -15.1644
1 -15.2398 3.97457 -15.2432
1 -11.4201 3.8725 -15.2924
1 -7.6529 3.93027 -15.3928
1 -3.74001 3.94772 -15.4418
2 -0.0596903 3.81787 -15.349
1 3.85586 3.93255 -15.436
1 7.57354 4.05763 -15.3133
2 11.3962 3.99861 -15.3741
1 15.2616 4.06051 -15.5032
2 -15.0474 7.84966 -15.0598
1 -11.4881 7.7641 -15.1609
1 -7.45546 7.65628 -15.2802
2 -3.70553 7.7131 -15.4334
2 -0.00241433 7.83294 -15.4625
2 3.86211 7.77811 -15.3047
3 7.62297 7.77913 -15.5771
1 11.3058 7.81654 -15.5246
1 15.1029 8.01491 -15.3644
3 -11.3377 11.3498 -15.2045
1 -7.50067 11.4837 -15.2305
2 -3.78184 11.4803 -15.3485
1 -0.111637 11.6305 -15.3327
1 3.80907 11.5549 -15.3809
2 7.60488 11.7184 -15.5629
2 11.2601 11.569 -15.5796
1 -7.97369 15.3799 -15.5343
1 -4.17947 15.6501 -15.8122
2 0.0700372 15.4364 -15.2095
3 3.8028 15.4541 -15.4064
2 8.01067 15.7477 -15.5963
2 -7.75504 -18.8745 -11.631
2 -3.859 -19.0462 -11.5934
2 -0.109547 -18.8864 -11.5248
3 3.76506 -18.8201 -11.5176
2 7.59802 -18.8316 -11.4159
3 -11.2854 -15.2792 -11.4807
1 -7.61192 -15.2096 -11.5582
2 -3.74165 -15.2896 -11.3937
2 0.0221729 -15.1683 -11.4681
3 3.82588 -15.0725 -11.4226
2 7.64961 -15.117 -11.4947
1 11.5142 -15.3456 -11.572
2 -15.0466 -11.5384 -11.5594
3 -11.5112 -11.3612 -11.4081
1 -7.66391 -11.5923 -11.4029
3 -3.94987 -11.373 -11.5117
3 -0.0193146 -11.4743 -11.5026
2 3.71939 -11.3383 -11.5178
3 7.60039 -11.4002 -11.4516
1 11.3346 -11.2381 -11.2915
3 14.9855 -11.2066 -11.2901
2 -18.6974 -7.67678 -11.6409
2 -15.2658 -7.56639 -11.4558
1 -11.4681 -7.73435 -11.4908
2 -7.62122 -7.54917 -11.5367
1 -3.77492 -7.59004 -11.4446
3 -0.0276135 -7.58612 -11.4473
3 3.84121 -7.5431 -11.4947
2 7.56169 -7.57733 -11.4441
3 11.2439 -7.46069 -11.2684
3 15.1116 -7.49905 -11.2404
1 18.8823 -7.89945 -11.4829
3 -18.9353 -3.90392 -11.6204
3 -15.0818 -3.82351 -11.3359
2 -11.4388 -3.8734 -11.5155
1 -7.69734 -3.86159 -11.5467
1 -3.93495 -3.75779 -11.5443
2 -0.00746188 -3.79027 -11.5005
2 3.76081 -3.8197 -11.3457
2 7.51337 -3.78768 -11.4799
2 11.2035 -3.71336 -11.3228
2 15.0161 -3.72844 -11.391
3 18.9596 -3.84438 -11.3084
3 -18.7992 0.106238 -11.3844
2 -14.9729 -0.0884283 -11.5938
2 -11.4643 0.0572597 -11.3566
2 -7.56745 -0.037521 -11.5839
2 -3.92012 0.138591 -11.4092
2 -0.0764833 0.166621 -11.5645
2 3.74679 -0.0356368 -11.5792
3 7.47322 0.0992375 -11.4426
1 11.3142 0.0021877 -11.4394
3 14.9416 0.0527793 -11.4438
2 18.7857 0.0677852 -11.4973
2 -18.8927 4.14487 -11.5126
3 -15.1723 3.84699 -11.3982
1 -11.3742 3.902 -11.4808
1 -7.43698 3.87286 -11.5901
2 -3.93085 3.86462 -11.4802
3 0.0466221 3.90209 -11.5672
2 3.88895 3.99839 -11.5623
2 7.53719 4.00037 -11.4867
3 11.196 4.035 -11.5448
2 15.1105 3.79968 -11.3796
2 18.8112 3.92387 -11.5489
3 -18.7691 7.70859 -11.1908
3 -15.0609 7.62999 -11.363
2 -11.3398 7.53581 -11.4059
3 -7.45313 7.67417 -11.5908
1 -3.76015 7.74532 -11.4827
1 -0.0492313 7.74737 -11.572
3 3.93705 7.74731 -11.6064
1 7.55847 7.80157 -11.6871
3 11.3943 7.69791 -11.4748
3 15.0956 7.75481 -11.6193
3 18.8485 7.8275 -11.5441
3 -15.2324 11.4493 -11.4458
2 -11.2406 11.4152 -11.4674
1 -7.52741 11.5161 -11.5182
3 -3.75877 11.4305 -11.4635
1 0.0631195 11.5312 -11.5211
2 3.85538 11.5591 -11.7133
2 7.63712 11.633 -11.6719
1 11.4425 11.5525 -11.6283
2 15.1424 11.5564 -11.6407
1 -11.6754 15.4052 -11.8464
2 -7.73176 15.3367 -11.4865
3 -3.79502 15.2975 -11.5097
2 0.0743787 15.3532 -11.6821
1 3.92166 15.4304 -11.6654
2 7.82969 15.6336 -11.5446
2 11.5696 15.5989 -11.7223
1 -7.7048 18.8947 -11.6209
1 -4.16394 19.3209 -11.821
1 -0.0667307 20.0528 -12.4962
3 3.90817 19.134 -11.5944
2 7.75748 19.1521 -11.8115
2 -0.0738206 -22.7396 -7.62109
2 -11.2825 -18.8677 -7.68454
1 -7.50642 -19.0064 -7.75506
1 -3.91118 -19.0998 -7.71295
2 -0.0501529 -19.0204 -7.6633
2 3.66758 -18.9314 -7.6169
2 7.3669 -19.0978 -7.44756
1 11.9088 -19.0778 -8.20791
1 -15.3903 -15.4733 -7.98954
2 -11.2973 -15.2904 -7.50272
2 -7.61623 -15.2381 -7.54218
1 -3.78145 -15.2225 -7.61469
1 -0.0453346 -15.2237 -7.56547
2 3.86361 -15.1515 -7.70662
2 7.39307 -15.2157 -7.6026
3 11.3212 -15.1467 -7.59634
3 15.0958 -15.0736 -7.6036
1 -18.6042 -11.5496 -8.12843
3 -15.343 -11.498 -7.65789
3 -11.3772 -11.5589 -7.70242
2 -7.61457 -11.5288 -7.66728
1 -3.74598 -11.484 -7.65063
2 -0.0710918 -11.4648 -7.57949
2 3.8044 -11.3447 -7.61302
1 7.52418 -11.5184 -7.53693
2 11.2555 -11.2759 -7.4926
2 15.1411 -11.3397 -7.47997
1 18.69 -11.4363 -7.86485
1 -18.8934 -7.84457 -7.38342
2 -15.2453 -7.7884 -7.57927
2 -11.4301 -7.84613 -7.69407
2 -7.6667 -7.66515 -7.64916
1 -3.88863 -7.61987 -7.54625
3 -0.101054 -7.54116 -7.6198
2 3.73633 -7.62759 -7.58828
2 7.6328 -7.55978 -7.50734
3 11.3997 -7.45904 -7.5437
2 15.0751 -7.52244 -7.4555
3 18.8442 -7.35257 -7.38697
2 -18.9114 -3.84803 -7.53216
2 -15.2726 -3.79881 -7.56721
3 -11.4607 -3.87581 -7.63149
1 -7.71663 -3.88975 -7.6842
3 -3.98783 -3.82775 -7.66015
2 -0.132108 -3.71485 -7.75802
3 3.74886 -3.87116 -7.69031
2 7.53243 -3.90819 -7.56973
3 11.2398 -3.8513 -7.63861
2 14.9704 -3.76425 -7.42631
3 18.8572 -3.78956 -7.601
2 -22.674 0.118625 -7.69287
1 -18.9231 0.00225559 -7.34398
3 -15.0255 -0.0701802 -7.59141
2 -11.3899 -0.143991 -7.60557
2 -7.59752 -0.0481392 -7.6292
2 -3.74228 0.139006 -7.83794
3 -0.109292 0.0332204 -7.65019
3 3.76045 0.0195863 -7.75772
2 7.42562 0.0278276 -7.72866
1 11.2479 0.0267922 -7.59976
3 15.0204 0.0215751 -7.56823
3 18.89 0.121289 -7.64359
2 22.3938 -0.0205304 -7.53258
3 -18.6991 3.78584 -7.48085
2 -15.0652 3.80081 -7.64883
3 -11.3068 3.80797 -7.76529
3 -7.51173 3.85515 -7.74203
2 -3.72469 3.89803 -7.81281
1 0.11668 3.89257 -7.70967
2 3.76091 3.97725 -7.70226
3 7.44586 3.95651 -7.62734
2 11.1286 3.73436 -7.68804
1 15.0016 3.88232 -7.55481
2 18.7188 3.80407 -7.44343
2 -18.8186 7.69191 -7.73222
1 -15.0762 7.66507 -7.60883
2 -11.2788 7.55684 -7.69522
3 -7.56397 7.58025 -7.80384
2 -3.79986 7.57189 -7.88735
1 -0.00178974 7.61507 -7.80796
3 3.70597 7.73177 -7.75518
2 7.50503 7.72059 -7.68593
3 11.4088 7.62426 -7.68263
2 15.1008 7.64635 -7.571
1 18.7718 7.56081 -7.51021
3 -18.5847 11.4642 -7.913
2 -15.0736 11.4474 -7.73402
3 -11.2205 11.5263 -7.75368
3 -7.52855 11.5506 -7.72603
1 -3.83377 11.4201 -7.69592
1 0.0305303 11.6056 -7.93731
1 3.84826 11.5525 -7.72199
3 7.64001 11.4179 -7.88326
3 11.3909 11.5235 -7.64677
1 15.0787 11.466 -7.65756
2 18.9111 11.4869 -7.53144
2 -15.0187 15.1474 -7.87685
2 -11.2383 15.28 -7.78139
3 -7.39156 15.2867 -7.67701
2 -3.79578 15.3123 -7.83123
3 0.169144 15.2524 -7.85591
1 3.99841 15.3313 -7.89564
2 7.74073 15.4585 -7.74701
2 11.4407 15.169 -7.74492
3 15.0574 15.2142 -7.69221
1 -11.3314 18.7677 -7.96468
3 -7.4675 18.8902 -7.62178
1 -3.73626 18.9918 -7.78855
3 0.138607 19.0796 -7.7836
1 3.82678 19.1612 -7.7085
2 7.65826 19.1694 -7.68328
1 11.5137 19.0911 -8.00539
2 0.152012 22.5785 -7.66416
2 -3.76935 -22.927 -4.29861
3 0.0266818 -22.6038 -3.71939
2 3.7991 -22.776 -3.81424
1 -11.8362 -19.3379 -3.91905
3 -7.51401 -19.1215 -3.7881
1 -3.96697 -19.162 -3.79357
1 -0.0704449 -19.0344 -3.83274
1 3.72942 -19.149 -3.75563
1 7.41791 -19.0299 -3.83027
3 11.4241 -18.9256 -3.79486
1 -15.5442 -15.5602 -3.87251
3 -11.271 -15.3555 -3.71766
3 -7.54288 -15.3164 -3.8681
3 -3.76212 -15.2155 -3.76232
2 0.0628789 -15.2545 -3.72258
1 3.81139 -15.2366 -3.81436
2 7.47138 -15.2165 -3.72194
2 11.2288 -15.1498 -3.82225
3 15.3004 -15.2316 -3.73381
3 -18.7897 -11.6471 -3.76102
2 -15.0684 -11.5258 -3.8116
1 -11.261 -11.5144 -3.81901
3 -7.57924 -11.5755 -3.84851
1 -3.79796 -11.527 -3.65971
1 -0.0948125 -11.3855 -3.67593
2 3.63032 -11.3477 -3.62734
2 7.52987 -11.4183 -3.73329
2 11.366 -11.4674 -3.88868
2 15.2857 -11.4831 -3.68545
1 19.2023 -11.5599 -3.97571
2 -18.8571 -7.80237 -3.81656
1 -15.0467 -7.68662 -3.78863
2 -11.3612 -7.8638 -3.81033
2 -7.57878 -7.76333 -3.62574
2 -3.80441 -7.69319 -3.68818
2 -0.0544576 -7.60259 -3.68378
2 3.77283 -7.758 -3.74337
2 7.49551 -7.66382 -3.67478
1 11.3586 -7.58644 -3.78091
1 15.0132 -7.41381 -3.69452
2 18.6368 -7.36034 -3.70293
1 -21.5444 -4.93371 -4.12393
1 -19.0269 -4.0658 -3.6682
1 -15.0704 -3.94689 -3.73888
1 -11.2977 -4.0016 -3.75752
1 -7.53431 -3.76858 -3.83497
2 -3.67256 -3.67161 -3.80188
1 -0.165082 -3.7286 -3.79767
1 3.60126 -3.89267 -3.80781
1 7.45798 -3.83068 -3.76496
3 11.129 -3.82851 -3.60048
3 14.9845 -3.81182 -3.71317
1 18.6893 -3.76106 -3.72726
3 22.4412 -3.7941 -3.76134
2 -22.9762 -0.267627 -3.71628
3 -18.6896 0.062666 -3.92052
3 -14.8581 -0.234853 -3.73597
2 -11.2602 -0.0930295 -3.79107
3 -7.5671 -0.0175536 -3.87977
2 -3.77207 -0.0342193 -3.76831
2 0.0548132 0.0707731 -4.0338
3 3.56409 0.058552 -3.86133
2 7.46692 -0.0500065 -3.85407
2 11.2037 -0.107601 -3.70475
2 15.0993 0.0169734 -3.85034
2 18.7977 0.0251907 -3.72996
3 22.4388 0.0255331 -3.78256
3 -22.4838 3.93278 -3.80609
1 -18.6469 3.77088 -3.885
3 -14.9525 3.79701 -3.83158
2 -11.2201 3.74134 -3.99032
2 -7.56793 3.66677 -3.87484
1 -3.73445 3.84785 -4.00686
2 0.0714468 3.91372 -4.01545
2 3.72516 3.85285 -3.85337
2 7.39008 3.72399 -3.79113
3 11.3333 3.7969 -3.83283
2 14.9972 3.86691 -3.81019
2 18.7717 3.79865 -3.88214
1 22.4002 3.78716 -3.86509
2 -18.7049 7.60445 -3.86216
2 -15.0271 7.64482 -3.95352
2 -11.203 7.67733 -3.92345
2 -7.3885 7.70949 -4.01615
2 -3.66768 7.59693 -4.00901
2 0.0448432 7.60374 -3.83686
1 3.74816 7.65322 -3.83719
2 7.69978 7.71563 -3.95713
3 11.3252 7.77619 -3.86884
2 15.0062 7.70187 -3.7867
2 18.7722 7.71542 -3.81076
2 -18.596 11.5962 -3.98246
1 -15.0257 11.385 -3.86979
3 -11.117 11.4358 -3.8729
1 -7.53692 11.5193 -3.99973
3 -3.74402 11.3653 -4.09106
1 0.0695206 11.4825 -3.98885
1 3.80245 11.554 -3.96288
1 7.62194 11.5401 -3.88195
3 11.385 11.3972 -3.92903
2 15.1576 11.597 -3.96311
2 19.1985 11.8044 -4.38162
2 -15.0564 15.2897 -3.96913
3 -11.303 15.2904 -4.00461
3 -7.58084 15.2187 -3.9328
3 -3.65368 15.1525 -3.9959
1 0.0827085 15.2421 -3.90737
2 3.89067 15.2252 -3.92291
2 7.75267 15.3417 -3.82741
2 11.3895 15.3 -3.95791
2 15.3082 15.3948 -3.80464
1 -11.2658 19.0984 -4.03188
2 -7.50849 19.0331 -3.83665
3 -3.66512 19.0064 -3.91767
2 0.118571 19.0854 -3.88909
3 3.86002 19.0405 -3.91585
3 7.82755 19.1648 -4.06799
2 11.9936 19.8039 -4.16148
3 -3.67144 22.7852 -3.93977
2 -0.0739238 22.6843 -3.9534
2 3.81591 22.9389 -3.84644
2 -6.2223 -23.1436 -0.309036
1 -3.71323 -22.993 0.194463
3 -0.127698 -22.8091 -0.087344
1 3.6643 -22.8616 -0.0579226
2 7.26324 -22.818 -0.00275745
3 -11.3509 -19.017 0.124661
1 -7.66406 -19.0259 0.124704
1 -3.78953 -18.8787 -0.00147714
3 -0.0638546 -19.0717 0.073942
3 3.70869 -19.0769 -0.0134614
2 7.45751 -19.0544 0.0889974
2 11.3581 -19.1886 0.16831
2 -14.8246 -15.2818 0.173214
2 -11.3389 -15.3042 0.213349
3 -7.65062 -15.2386 0.230111
2 -3.86865 -15.1955 -0.0526759
3 -0.0841938 -15.2964 0.115334
1 3.76062 -15.2709 0.0693129
3 7.42134 -15.2561 0.0456366
1 11.2561 -15.202 0.00292855
2 15.0992 -15.2728 0.088604
2 -18.8445 -11.5809 0.0344913
2 -15.0564 -11.5608 0.147145
3 -11.283 -11.5077 0.157938
3 -7.53819 -11.4877 0.162274
1 -3.94964 -11.5357 0.244415
3 0.0900822 -11.4368 0.195347
2 3.78179 -11.4904 0.0161427
3 7.52366 -11.4811 -0.0114215
1 11.3407 -11.4112 0.0495012
1 15.0944 -11.7104 0.0797712
2 18.9787 -11.4975 0.0292723
2 -22.5527 -7.6302 0.0971056
3 -18.7101 -7.76318 0.0991907
3 -14.9705 -7.7689 0.0414327
3 -11.282 -7.79118 0.234227
2 -7.49615 -7.78911 0.29557
2 -3.84296 -7.69702 0.297871
1 -0.0786972 -7.67473 0.133203
3 3.75181 -7.67184 0.13028
2 7.5314 -7.68416 -0.0255724
3 11.2704 -7.67619 0.0593312
1 15.0661 -7.50238 0.102519
2 18.881 -7.54375 0.014804
2 22.2935 -7.46462 0.213424
3 -22.4631 -4.29142 0.00741493
2 -18.8605 -4.15041 0.0374592
2 -14.9712 -3.94747 0.0635132
2 -11.2031 -3.90172 0.203507
2 -7.55044 -4.11857 0.0296972
3 -3.80146 -3.85199 0.03511
2 -0.0299467 -4.0448 0.193637
2 3.64996 -3.8386 0.141325
1 7.52261 -3.8517 0.157744
1 11.2649 -3.9359 0.131458
3 15.1256 -3.86107 0.0767732
3 18.7307 -3.80565 0.213352
2 22.5971 -3.6785 -0.0766938
1 -22.4223 -0.321577 -0.0546486
2 -18.6968 -0.154959 -0.173219
2 -14.9187 -0.0531287 -0.0516029
1 -11.2964 -0.0896758 0.0768376
3 -7.66504 -0.0131648 0.00346576
2 -3.91326 -0.092394 0.0229704
2 0.0157558 -0.0873545 0.0662613
1 3.69451 -0.0566176 0.0653571
3 7.4165 0.00144855 0.0572193
3 11.2774 -0.0306358 0.0951617
3 15.014 -0.0177987 0.0647278
3 18.8183 -0.0890357 -0.0545762
3 22.5832 -0.116298 0.189031
1 -22.6525 3.59023 -0.00976703
2 -18.612 3.91388 -0.0819561
1 -15.0178 3.75137 0.0216475
3 -11.287 3.79237 -0.106067
2 -7.50001 3.67317 -0.0809583
2 -3.89344 3.74471 -0.21063
1 -0.198508 3.84972 -0.112816
1 3.69699 3.8157 -0.0931129
2 7.57112 3.89749 0.0991461
1 11.2565 3.94656 -0.0564357
3 14.9984 3.92605 0.101858
2 18.7425 3.86207 0.0214122
2 22.5856 4.00033 0.113807
3 -22.2924 7.42885 -0.104811
3 -18.5394 7.65947 -0.140963
1 -14.9626 7.68085 -0.116252
2 -11.1446 7.55774 -0.15907
2 -7.46001 7.63171 -0.221104
2 -3.65823 7.64086 -0.0895596
1 0.0891788 7.59699 -0.14208
3 3.83947 7.6747 -0.0192109
3 7.59236 7.67522 -0.0937029
3 11.4372 7.65218 -0.00353634
2 14.9812 7.60621 -0.0641284
2 18.8023 7.62187 0.146584
1 22.4011 7.55079 0.114027
1 -18.7619 11.4577 -0.157526
1 -14.9429 11.2442 -0.0599365
3 -11.2096 11.3877 -0.0675149
3 -7.45921 11.5759 -0.127341
2 -3.6239 11.4613 -0.109569
3 0.113948 11.4735 -0.15193
2 3.91139 11.4932 -0.210028
2 7.78576 11.5822 -0.114727
2 11.322 11.5274 -0.159529
2 15.1158 11.5314 -0.17499
3 18.8075 11.4213 0.0401058
3 -14.9105 15.302 -0.15993
3 -11.1352 15.2403 -0.100068
2 -7.43616 15.263 -0.247413
2 -3.60929 15.2453 -0.247677
1 -0.0218573 15.4028 -0.0529077
2 3.87523 15.3343 -0.171791
1 7.63783 15.4212 0.0170395
3 11.3575 15.2986 -0.0550806
3 15.2546 15.2869 -0.0179156
2 -11.1946 18.968 -0.227834
3 -7.37697 18.9954 -0.315254
2 -3.61693 19.067 -0.0413078
1 0.0561382 19.0048 -0.0472194
1 3.9178 19.0797 -0.0827207
3 7.63853 19.0032 -0.0266706
3 11.4678 19.1619 0.0716706
3 -7.38511 22.6935 -0.323471
3 -3.65513 22.6591 -0.0127938
1 0.0536947 22.8441 -0.0646176
2 3.66285 22.8423 0.0553991
3 7.48258 22.7808 -0.170675
2 -3.81054 -23.0292 4.11424
1 -0.104695 -23.1226 3.82699
2 3.60672 -22.6984 3.9471
2 -11.5104 -19.0879 4.06291
3 -7.67775 -19.1466 4.07557
1 -3.85224 -18.9481 3.92152
1 -0.190339 -19.1625 3.99882
2 3.74652 -19.0202 3.93012
2 7.50355 -19.0161 3.85187
2 11.1982 -19.177 3.87169
2 -15.0686 -15.3134 3.92758
2 -11.3022 -15.2128 3.94876
2 -7.64355 -15.3281 4.02871
3 -3.85248 -15.3557 3.96268
2 -0.156205 -15.3995 3.97866
3 3.74242 -15.2426 3.82075
1 7.60109 -15.2382 3.89981
3 11.2547 -15.2972 3.92345
2 15.1453 -15.3221 3.95625
2 -19.077 -11.7124 4.02351
3 -15.0855 -11.6063 3.80975
1 -11.3558 -11.5429 3.94089
3 -7.4906 -11.5715 4.09843
2 -3.79187 -11.5356 4.02982
2 -0.0398013 -11.6216 3.81526
1 3.72792 -11.405 3.8252
2 7.50308 -11.4244 3.98331
2 11.3172 -11.5291 3.93774
2 15.1729 -11.6675 3.95878
3 18.8141 -11.4942 3.94691
2 -18.8604 -7.8364 3.83526
3 -15.0945 -7.78885 3.89388
3 -11.3369 -7.63747 3.97481
3 -7.56724 -7.63803 3.92709
3 -3.82338 -7.72276 4.0119
2 -0.0985572 -7.7948 3.98701
3 3.71927 -7.72805 3.89417
2 7.52944 -7.58146 3.90425
2 11.292 -7.63871 3.91551
2 15.1844 -7.61403 3.82266
1 18.8507 -7.68524 3.87166
3 -22.4702 -3.97163 3.82301
2 -18.7959 -4.00106 3.94489
2 -14.9563 -3.8205 3.80234
2 -11.2523 -3.94586 3.84822
2 -7.43862 -3.99125 3.83362
3 -3.82834 -3.8813 3.80553
3 -0.0137366 -3.98582 3.89552
3 3.73767 -3.84689 3.76961
2 7.51783 -3.93005 3.88565
3 11.2666 -3.8086 3.95866
2 15.1426 -3.93671 3.92308
3 18.7557 -3.8058 3.99139
2 22.7496 -3.92608 3.69492
2 -22.3407 -0.215078 3.79246
1 -18.7337 -0.231835 3.81407
2 -15.0022 -0.150948 3.87516
1 -11.2747 -0.136828 3.87178
2 -7.36723 -0.179781 3.85857
1 -3.74335 -0.141413 3.87819
2 -0.00275644 -0.123093 3.90991
2 3.73859 0.0129916 3.81394
2 7.61558 -0.0228127 3.85342
1 11.23 -0.152468 3.90098
1 14.985 0.00221802 3.81603
3 18.7981 0.0833859 3.74623
1 22.7097 0.104678 3.85802
2 -22.4956 3.85604 3.59122
2 -18.755 3.7164 3.65819
2 -14.9755 3.7235 3.64332
2 -11.1697 3.82264 3.77237
2 -7.56185 3.68202 3.76586
2 -3.86959 3.67714 3.87414
2 0.0545547 3.66308 3.7928
2 3.75966 3.82834 3.75064
1 7.48795 3.79027 3.89469
1 11.2661 3.78173 3.83699
2 14.9759 3.83999 3.83643
2 18.7943 3.79987 3.67075
2 22.4913 3.79045 3.69146
2 -18.6522 7.6555 3.59239
1 -15.0655 7.51526 3.79535
2 -11.2044 7.64412 3.58257
2 -7.42954 7.52613 3.78146
2 -3.6481 7.5619 3.79757
2 0.132608 7.67261 3.77286
2 3.72941 7.43881 3.74452
3 7.60973 7.67721 3.96042
3 11.2527 7.66646 3.8704
3 15.0886 7.71341 3.77707
3 18.8057 7.53934 3.86263
2 -18.7346 11.4694 3.845
2 -14.8136 11.4547 3.67429
1 -11.1788 11.4406 3.61023
1 -7.32295 11.4276 3.63569
1 -3.5121 11.4966 3.66976
3 0.174684 11.4419 3.66456
2 3.93012 11.5253 3.90085
1 7.56081 11.4689 3.85268
2 11.2975 11.4767 3.90071
3 15.0192 11.5095 3.91033
3 18.791 11.4871 3.76212
3 -14.9838 15.3511 3.676
3 -11.2084 15.204 3.67375
2 -7.38623 15.2285 3.8918
3 -3.5597 15.215 3.72115
3 0.0459746 15.204 3.66847
3 3.83458 15.3339 3.85359
2 7.75097 15.3904 3.7306
1 11.4783 15.403 3.97139
1 15.1187 15.335 3.98669
2 -11.269 19.2083 3.89346
1 -7.33199 19.0268 3.82195
2 -3.71746 18.8686 3.71154
1 -0.0143061 19.0394 3.7848
2 3.8828 19.2108 3.8056
2 7.6402 19.3465 3.88818
2 11.4871 19.3977 3.84734
3 -3.67178 22.8816 3.76916
1 -0.00480964 22.6902 3.78408
2 3.77485 22.7922 3.84916
3 -0.180086 -22.8518 7.71515
1 -11.4985 -18.9153 8.0386
1 -7.66985 -19.0928 7.70076
2 -3.8613 -19.072 7.73655
2 0.0651699 -19.1217 7.83746
2 3.74356 -19.2289 7.79863
3 7.5369 -19.258 7.75282
1 11.2168 -18.9503 7.82879
3 -15.083 -15.0579 7.81726
1 -11.5392 -15.2502 7.78998
2 -7.52617 -15.3002 7.70702
3 -3.86821 -15.233 7.78535
3 0.0227152 -15.3509 7.71398
1 3.72701 -15.2782 7.77902
3 7.52896 -15.2872 7.66781
1 11.4779 -15.3388 7.70793
3 14.8201 -15.2692 7.53264
2 -18.9328 -11.4493 7.77261
2 -15.3077 -11.4198 7.60972
2 -11.2734 -11.4448 7.73736
2 -7.57027 -11.6212 7.87313
2 -3.7442 -11.6674 7.8206
1 -0.0873986 -11.5197 7.77421
3 3.7418 -11.5269 7.74594
3 7.45665 -11.4654 7.75374
2 11.3542 -11.5551 7.70004
2 14.9853 -11.4251 7.56594
1 18.6615 -11.6324 7.87037
2 -18.8387 -7.63082 7.65718
2 -15.0763 -7.81136 7.55505
1 -11.1948 -7.6814 7.72789
2 -7.52036 -7.66273 7.83367
1 -3.77685 -7.83488 7.7935
2 -0.00852095 -7.72907 7.82622
2 3.80411 -7.78058 7.68698
3 7.46188 -7.73767 7.73982
1 11.2929 -7.56556 7.50947
3 15.1127 -7.68861 7.68277
3 18.9839 -7.71203 7.62926
1 -18.845 -3.89735 7.71235
1 -15.0242 -3.87335 7.60198
3 -11.1538 -3.81154 7.62193
2 -7.47444 -3.93411 7.77081
2 -3.75436 -3.99006 7.77793
3 -0.0255367 -3.85042 7.76923
2 3.86313 -3.81453 7.68826
1 7.50466 -3.91694 7.69824
1 11.2432 -3.83966 7.61475
1 15.2043 -3.86459 7.62068
2 19.0036 -3.78218 7.58743
3 -22.3899 -0.115082 7.39425
1 -18.6668 0.00343595 7.57159
2 -15.005 -0.076926 7.59097
1 -11.2741 -0.00424198 7.72043
2 -7.36942 -0.0448967 7.65575
3 -3.79565 -0.21732 7.77956
1 0.114218 -0.0524139 7.76198
2 3.77331 -0.0251086 7.63136
3 7.52234 -0.0909143 7.69251
3 11.2415 -0.0593536 7.7119
3 14.997 -0.0861898 7.69115
2 18.7156 0.082105 7.49013
2 22.62 0.141635 7.58318
1 -18.7367 3.67602 7.49129
2 -14.9008 3.73064 7.44382
2 -11.1337 3.73214 7.65091
1 -7.43705 3.83865 7.57665
3 -3.87903 3.64894 7.67812
2 -0.0242007 3.68955 7.62409
1 3.81204 3.71126 7.72088
2 7.55498 3.69134 7.49746
3 11.2234 3.70246 7.65475
2 15.0596 3.8659 7.70618
2 18.7083 3.86649 7.65942
3 -18.8343 7.56661 7.50592
2 -15.0529 7.5045 7.58443
2 -11.1695 7.54253 7.56397
2 -7.32846 7.50678 7.69653
3 -3.54273 7.59779 7.53644
1 0.0652723 7.58317 7.57388
1 3.79817 7.57565 7.57894
1 7.54554 7.45575 7.60589
2 11.2742 7.67894 7.60992
2 15.0041 7.69107 7.64283
1 18.6691 7.60443 7.68563
3 -18.4881 11.3881 7.56083
1 -14.9938 11.4128 7.51246
3 -11.0971 11.3558 7.50648
2 -7.44917 11.3984 7.54955
2 -3.63742 11.3843 7.56155
2 0.17399 11.5565 7.60476
2 3.62396 11.4228 7.57368
2 7.50856 11.3923 7.56681
1 11.3726 11.473 7.62547
2 14.9981 11.4391 7.69637
1 18.7485 11.3264 7.52018
2 -15.1674 15.5118 7.96525
1 -11.2208 15.2178 7.49256
3 -7.43242 15.1667 7.50678
3 -3.59771 15.0451 7.46688
3 0.159758 15.2726 7.58204
3 3.86752 15.2769 7.62879
3 7.69613 15.4158 7.5868
2 11.3633 15.2864 7.77183
3 15.1125 15.2072 7.61303
3 -11.1029 18.6241 7.5834
2 -7.35879 18.9616 7.44126
3 -3.66254 18.9538 7.56612
2 0.184122 18.9864 7.48184
2 3.8494 19.2795 7.55991
2 7.65213 19.1234 7.71553
2 11.3253 18.9922 7.69425
2 -0.0863199 22.6283 7.62215
3 -7.75546 -18.9308 11.6862
1 -3.94199 -19.417 11.8419
2 0.119438 -19.2561 11.5915
3 3.87152 -19.2043 11.4643
3 7.73759 -19.0382 11.5613
1 -11.9038 -15.512 12.1613
2 -7.74849 -15.4331 11.4254
2 -3.8893 -15.3244 11.5425
1 -0.0127708 -15.4541 11.5284
3 3.80603 -15.3187 11.4626
3 7.58354 -15.2062 11.4052
1 11.6585 -15.5683 11.8836
2 -15.3422 -11.5085 11.7169
3 -11.5529 -11.5389 11.5743
2 -7.62704 -11.4911 11.5647
2 -3.86827 -11.5785 11.7502
1 0.0541585 -11.5108 11.6981
3 3.66251 -11.5084 11.5896
2 7.54904 -11.3639 11.5434
3 11.4236 -11.6125 11.5196
1 15.061 -11.5814 11.5239
3 -18.7976 -7.63769 11.4488
3 -15.0085 -7.63508 11.4322
2 -11.3507 -7.74964 11.5523
3 -7.60482 -7.68496 11.6554
3 -3.75197 -7.75415 11.6423
2 0.0477953 -7.75186 11.6284
1 3.79788 -7.66701 11.6702
1 7.47622 -7.60427 11.5597
2 11.2064 -7.60596 11.4883
1 15.2356 -7.81485 11.5124
1 18.9073 -7.81783 11.5823
2 -20.4709 -5.42827 11.5182
2 -15.0047 -3.71968 11.4553
2 -11.3535 -3.79919 11.4791
2 -7.55279 -3.79878 11.5087
2 -3.60681 -3.88783 11.4192
1 0.0367515 -3.93791 11.489
3 3.88737 -3.91216 11.6329
2 7.60236 -3.8552 11.5949
2 11.4671 -3.74489 11.4511
2 15.2048 -3.85566 11.5197
2 19.1111 -3.9534 11.6361
3 -19.0424 -0.264086 11.4557
2 -15.0984 -0.167055 11.521
3 -11.3982 -0.0618356 11.4973
1 -7.51548 -0.0518142 11.6467
2 -3.7797 -0.0650637 11.6108
3 0.0098408 -0.170042 11.4796
1 3.93063 0.0322728 11.5094
1 7.45018 -0.134393 11.4808
2 11.318 -0.0729914 11.3391
2 15.0498 -0.081431 11.4958
1 18.8871 0.016777 11.4222
2 -18.794 3.74612 11.3121
1 -15.1833 3.74457 11.4101
1 -11.3303 3.81729 11.5091
1 -7.4824 3.65369 11.418
3 -3.74919 3.55457 11.5533
3 0.047695 3.69246 11.2897
1 3.75578 3.61817 11.6772
3 7.5016 3.55873 11.6078
2 11.1516 3.81805 11.4696
3 15.055 3.81332 11.4375
3 18.7697 3.76364 11.4548
2 -18.8404 7.56035 11.2526
1 -14.989 7.4484 11.4049
2 -11.2024 7.38616 11.3869
1 -7.35076 7.47288 11.4053
2 -3.70354 7.42499 11.4552
1 0.107243 7.38165 11.4512
3 3.87661 7.45998 11.5323
2 7.46442 7.58407 11.3887
1 11.4038 7.59492 11.2912
1 15.0961 7.6206 11.3871
1 18.6415 7.63817 11.4418
2 -15.0351 11.3645 11.3108
3 -11.2997 11.3208 11.3605
1 -7.44031 11.3431 11.39
3 -3.66569 11.4075 11.309
2 -0.00564342 11.3167 11.3653
1 3.72882 11.4731 11.4226
2 7.54721 11.4734 11.2581
2 11.3015 11.5038 11.4099
2 15.2085 11.6592 11.6578
3 -11.2709 15.1361 11.3829
2 -7.51548 15.3477 11.2369
2 -3.618 15.1424 11.4109
2 0.042766 15.1733 11.4416
2 3.73232 15.1382 11.4025
1 7.45659 15.1766 11.452
2 11.2497 15.3031 11.4693
1 -7.57054 18.6074 11.224
1 -3.91987 19.2425 11.6278
2 0.0869596 18.9771 11.5311
2 3.83046 19.1626 11.5175
3 7.50742 18.7567 11.4153
3 -7.83926 -15.2415 15.301
2 -3.87687 -15.5362 15.7038
2 0.0504031 -15.3656 15.5655
1 3.7262 -16.4716 16.7847
2 7.75427 -15.3777 15.5359
3 -11.238 -11.5734 15.4409
2 -7.44659 -11.6891 15.2626
2 -3.86681 -11.6314 15.6169
3 -0.101437 -11.4792 15.5426
2 3.90181 -11.7251 15.5943
3 7.78066 -11.5198 15.382
2 11.4817 -11.4362 15.4758
3 -15.0275 -7.87539 15.2373
2 -11.5462 -7.81408 15.4234
3 -7.62808 -7.79267 15.4782
1 -3.77906 -7.72911 15.5361
2 -0.106904 -7.70589 15.4558
2 3.71162 -7.69693 15.4777
3 7.49581 -7.73746 15.4446
2 11.3101 -7.6573 15.431
3 15.0235 -7.68025 15.264
2 -15.3046 -3.89269 15.6128
2 -11.4127 -3.90351 15.4739
1 -7.55411 -3.93648 15.3634
2 -3.93892 -3.93013 15.4553
1 -0.0865346 -3.88217 15.412
1 3.84088 -3.9945 15.4403
1 7.5702 -3.80547 15.4318
2 11.2752 -3.68099 15.3077
3 15.3153 -3.96335 15.3999
3 -15.2066 -0.0462978 15.2545
1 -11.3098 -0.124054 15.4715
3 -7.45623 -0.029608 15.3397
2 -3.75616 0.00360968 15.2078
1 -0.0746717 -0.131907 15.3664
3 3.7932 -0.0346843 15.3225
1 7.60593 -0.061798 15.3881
1 11.2586 -0.077347 15.3939
1 15.1025 -0.0888984 15.3328
3 -15.1599 3.82625 15.1204
1 -11.501 3.68936 15.3356
3 -7.45492 3.77484 15.277
3 -3.67493 3.50961 15.2384
2 0.0252796 3.51233 15.2946
2 3.76096 3.75215 15.2978
3 7.55269 3.59371 15.3686
3 11.3782 3.91954 15.2927
2 15.2812 3.77854 15.4705
2 -15.0093 7.67463 15.1207
2 -11.2814 7.55837 15.2245
2 -7.4486 7.59577 15.075
2 -3.71986 7.52489 15.1308
2 0.0543684 7.50693 15.2288
2 3.76558 7.62541 15.2762
1 7.61757 7.593 15.2915
1 11.3346 7.59816 15.2434
3 14.9989 7.59621 15.1547
1 -12.1341 11.8533 15.5308
1 -7.68881 11.2757 15.0136
2 -3.65208 11.3252 15.3147
2 -0.0164599 11.2918 15.4061
2 3.71915 11.3953 15.3234
2 7.45585 11.4352 15.2727
2 11.347 11.4595 15.2771
2 -8.04846 15.1364 15.131
2 -4.4949 15.5643 16.3591
2 -0.0937171 15.1576 15.3204
2 3.71858 15.3453 15.304
1 7.75297 15.31 15.3224
1 -7.60714 -11.4872 19.1514
2 -4.13659 -11.8408 19.5154
3 -0.187251 -11.6496 19.344
1 4.00664 -11.9117 19.3611
3 7.67017 -11.6318 19.1299
1 -11.456 -7.77175 19.0088
3 -7.66053 -7.68293 19.2762
2 -3.91967 -7.74981 19.5144
2 0.151494 -7.74287 19.341
2 3.5856 -7.76902 19.4367
3 7.40706 -7.72348 19.1652
1 11.4971 -7.50628 19.1848
2 -11.755 -4.01189 19.426
1 -7.54454 -3.83906 19.3056
1 -4.01855 -3.97356 19.4663
2 0.0541917 -4.04125 19.4195
2 3.69211 -3.79899 19.0519
1 7.61533 -3.73565 19.2094
1 11.6637 -3.82334 19.4017
2 -11.3246 -0.0827738 19.1625
2 -7.4319 0.0134121 18.9975
1 -3.78543 -0.0536945 19.1473
1 -0.128205 -0.00823252 19.1431
2 3.84508 -0.12467 19.2378
3 7.63492 0.0627136 19.05
2 11.297 -0.094144 19.0857
2 -11.8304 4.03015 19.0718
1 -7.55424 3.75086 19.1116
2 -3.78344 3.60535 19.0673
2 0.086615 3.58586 19.0893
2 3.93921 3.71285 19.1362
3 7.59743 3.75529 19.0453
3 11.2649 3.92564 19.143
2 -11.4183 7.63803 18.8484
2 -7.72883 7.60409 18.8645
2 -3.75464 7.37447 19.0105
2 0.00466142 7.44559 19.0719
2 3.78207 7.59165 19.0779
1 7.54757 7.59246 18.9961
3 11.1163 7.62657 18.8823
1 -8.04848 11.4842 18.742
1 -3.91552 11.3446 18.8391
3 0.0590065 11.2378 19.0044
1 3.77269 11.3426 19.2628
3 7.48317 11.4417 18.7816
2 -0.346001 -7.386 22.9383
1 -3.99025 -3.77547 23.0549
1 -0.110912 -3.95806 22.7974
2 3.93852 -4.04926 22.9446
1 -7.73208 0.0396857 22.8761
2 -3.79832 -0.0881509 22.8809
1 -0.0301773 -0.0337035 22.9186
2 3.90329 0.0377436 22.7264
3 7.4658 0.157324 22.6705
1 -4.17251 3.85078 22.8335
3 -0.0557902 3.82985 22.7841
3 3.78431 3.80099 22.7411
3 -0.039612 7.42115 22.6552
2 -5.78806 -5.57958 -22.9071
2 -1.93032 -5.53353 -22.698
1 1.7613 -5.65896 -22.7525
2 5.5898 -5.64615 -22.9506
1 -5.64968 -1.71867 -22.7116
2 -1.8476 -1.8454 -22.8998
2 1.776 -1.76866 -22.9713
2 5.61587 -1.75068 -22.888
1 -5.50817 1.86619 -22.4868
2 -1.87071 1.98777 -22.8211
2 1.76364 2.1861 -22.8073
2 5.53434 2.02519 -22.8069
2 -5.78381 6.13235 -22.8322
3 -1.70222 5.96937 -22.8671
2 1.78691 5.89353 -22.7608
2 5.99353 5.99627 -22.8639
1 -5.98055 -13.3884 -18.8791
2 -1.92172 -13.2423 -19.1021
1 1.99454 -13.1774 -19.0326
2 6.07994 -13.3104 -18.8297
3 -9.50516 -9.5429 -18.9344
2 -5.9478 -9.48468 -19.263
1 -1.62197 -9.4544 -19.1631
2 1.87058 -9.62584 -19.1825
3 5.8206 -9.42681 -19.2244
2 9.73616 -9.4134 -18.9118
1 -13.2957 -6.04314 -19.0237
1 -9.68061 -5.67817 -19.1121
3 -5.91535 -5.64125 -19.2076
2 -1.92801 -5.56743 -19.0137
3 1.99774 -5.64466 -19.1776
2 5.66999 -5.69969 -19.309