4321
 Atoms. Timestep: 4193
3 -0.124126 -7.43912 -22.8346
2 -3.87478 -3.75142 -22.9698
1 -0.151812 -3.65517 -22.9027
2 3.63143 -3.67969 -23.0686
1 -7.30565 0.0692928 -22.6354
1 -3.82426 -0.00441955 -22.9179
1 -0.193575 0.220783 -22.9641
2 3.67757 0.0719395 -22.6603
2 7.48432 0.20965 -22.7443
3 -3.88085 4.15586 -22.845
2 -0.157145 3.94085 -22.9216
2 3.77982 4.0158 -23.0434
3 0.0551319 7.77336 -22.7708
1 -7.69777 -11.4416 -19.1915
2 -4.13307 -11.6576 -19.4139
1 -0.0597946 -11.856 -19.7661
2 3.97337 -11.4194 -19.284
2 7.47587 -11.3536 -18.9637
3 -11.4174 -7.7529 -19.2502
1 -7.62659 -7.59395 -19.2897
1 -3.88883 -7.38293 -19.2922
2 -0.0414491 -7.35149 -19.1034
2 3.71547 -7.49273 -19.272
2 7.63835 -7.37045 -19.196
1 11.3032 -7.43542 -19.1676
1 -11.6523 -3.85516 -19.2475
2 -7.57768 -3.82445 -19.1876
1 -3.72792 -3.82026 -19.1959
1 -0.0600283 -3.69426 -19.225
2 3.74718 -3.73875 -19.268
2 7.66929 -3.70657 -19.1659
3 11.6249 -3.64239 -18.9616
1 -11.3446 0.201205 -19.2218
2 -7.76033 0.157608 -19.1457
2 -3.91482 0.224803 -19.0447
1 -0.156583 0.277981 -19.2407
2 3.79045 0.119877 -19.2262
2 7.48373 0.333601 -19.3525
1 11.5721 0.169119 -19.3457
2 -11.4261 4.13543 -19.1451
1 -7.66751 4.01102 -19.1304
2 -3.8738 4.07477 -19.1043
1 0.00809187 4.03048 -19.3097
1 3.80505 4.08532 -19.1479
2 7.84179 4.09361 -19.4552
2 11.7698 4.26772 -19.4252
3 -11.3661 7.94617 -18.9855
1 -7.62228 7.82108 -19.1062
1 -3.89637 7.89674 -19.1578
2 -0.0206306 7.87976 -19.2339
2 3.86122 7.77818 -19.2224
3 7.5453 7.73214 -19.2
2 11.667 8.00385 -19.3691
1 -7.77282 11.6251 -19.2107
3 -3.81636 11.5739 -19.0856
3 0.0113027 11.6357 -19.2082
1 4.0733 11.9091 -19.319
3 7.796 11.6257 -19.1479
1 -8.01017 -15.2792 -15.4897
3 -3.87721 -15.1446 -15.3143
3 0.0369831 -15.1 -15.2555
2 3.59892 -15.2069 -15.2914
3 7.57402 -15.037 -15.036
1 -11.3433 -11.4471 -15.5476
3 -7.59223 -11.4824 -15.476
1 -3.86101 -11.4277 -15.3361
2 -0.0640112 -11.2537 -15.3209
1 3.79321 -11.2416 -15.1914
1 7.58297 -11.2516 -15.3246
1 11.4787 -11.4093 -15.403
2 -15.2269 -8.04545 -15.6315
2 -11.3382 -7.73076 -15.4173
2 -7.62554 -7.66147 -15.2285
2 -3.89304 -7.55256 -15.4089
1 -0.0154892 -7.53245 -15.444
2 3.77455 -7.43995 -15.2921
2 7.5579 -7.60407 -15.2187
2 11.41 -7.52306 -15.2406
2 15.1011 -7.56352 -14.9568
2 -15.3541 -3.95484 -15.6097
2 -11.4009 -3.90159 -15.373
2 -7.54643 -3.80825 -15.4061
2 -3.95431 -3.83699 -15.4662
2 -0.0128135 -3.70542 -15.3299
3 3.71462 -3.69553 -15.3179
3 7.56993 -3.74695 -15.17
2 11.265 -3.64522 -15.2881
3 15.103 -3.76898 -15.1919
1 -15.0475 0.0823747 -15.265
2 -11.3164 -0.0518449 -15.351
1 -7.61524 0.125849 -15.2735
3 -3.8927 0.0997634 -15.3132
1 -0.137728 0.10297 -15.3986
2 3.78545 0.142437 -15.302
2 7.45665 0.136677 -15.3098
2 11.393 0.0302692 -15.2617
2 15.126 0.0568331 -15.2719
1 -15.2122 3.92002 -15.6391
1 -11.4157 3.83293 -15.3441
1 -7.67653 3.90703 -15.3873
1 -3.90912 4.02055 -15.5176
2 -0.138698 4.10071 -15.3477
1 3.71086 3.99306 -15.484
1 7.70782 4.02276 -15.4025
2 11.5585 3.73181 -15.4673
1 15.5015 3.93081 -15.5578
2 -15.0707 7.95496 -15.077
1 -11.4806 7.72681 -15.1761
1 -7.62123 7.78682 -15.2699
2 -3.86569 7.80926 -15.4276
2 -0.0581725 7.89385 -15.3887
2 3.8005 7.75495 -15.3617
3 7.63997 7.79343 -15.5279
1 11.3485 7.86005 -15.3825
1 15.4002 8.17357 -15.5856
3 -11.4125 11.5521 -15.1477
1 -7.50652 11.5362 -15.2401
2 -3.97191 11.6913 -15.3572
1 -0.185001 11.7107 -15.3977
1 3.88793 11.5153 -15.3532
2 7.65991 11.6009 -15.3745
2 11.332 11.4735 -15.4154
1 -7.99363 15.4615 -15.4595
1 -4.11375 15.7578 -15.9172
2 -0.151547 15.215 -15.5159
3 3.90783 15.4032 -15.3438
2 8.12746 15.7202 -15.695
2 -7.70386 -18.8369 -11.6173
2 -3.92613 -18.9016 -11.5629
2 -0.0242665 -18.9119 -11.5992
3 3.77756 -18.8006 -11.4161
2 7.71757 -18.6598 -11.3838
3 -11.2928 -15.3572 -11.4603
1 -7.66404 -15.2295 -11.6024
2 -3.68899 -15.1199 -11.4625
2 -0.0328876 -15.0491 -11.4083
3 3.75823 -15.1053 -11.3423
2 7.66369 -15.0647 -11.3257
1 11.6833 -15.3771 -11.7561
2 -14.968 -11.3952 -11.6679
3 -11.5995 -11.453 -11.5357
1 -7.67794 -11.4134 -11.4313
3 -3.89284 -11.3823 -11.4843
3 -0.143561 -11.3913 -11.6053
2 3.6732 -11.22 -11.6764
3 7.57831 -11.3074 -11.2821
1 11.3261 -11.2919 -11.3949
3 14.9818 -11.3092 -11.3167
2 -18.7269 -7.94435 -11.5875
2 -15.2999 -7.63104 -11.7423
1 -11.4442 -7.57379 -11.624
2 -7.52717 -7.54844 -11.5147
1 -3.61624 -7.4872 -11.4699
3 -0.202639 -7.47128 -11.4701
3 3.7609 -7.44326 -11.4901
2 7.73241 -7.53624 -11.4751
3 11.329 -7.51043 -11.3424
3 15.2004 -7.42029 -11.4607
1 18.8974 -7.60443 -11.4379
3 -18.9896 -3.88742 -11.7448
3 -15.1736 -3.74515 -11.4466
2 -11.4571 -3.85819 -11.499
1 -7.67274 -3.88207 -11.5572
1 -3.91089 -3.70307 -11.4836
2 -0.081199 -3.67212 -11.4744
2 3.75232 -3.65292 -11.3976
2 7.50794 -3.73659 -11.4229
2 11.3668 -3.62575 -11.3235
2 15.0428 -3.68341 -11.4152
3 18.8556 -3.70906 -11.399
3 -18.8055 0.172521 -11.5714
2 -15.2528 0.0411336 -11.6523
2 -11.389 -0.0679427 -11.4822
2 -7.68621 -0.128764 -11.4532
2 -3.92983 0.185159 -11.4802
2 -0.0537792 0.0501827 -11.4872
2 3.72634 0.107387 -11.559
3 7.47615 0.22825 -11.4353
1 11.4419 0.125826 -11.4543
3 14.9887 0.00257545 -11.5327
2 19.0704 0.0128581 -11.5471
2 -19.2079 4.42799 -11.7369
3 -15.1831 3.91128 -11.5122
1 -11.3935 3.90013 -11.4917
1 -7.55192 3.82821 -11.5959
2 -3.94573 3.79879 -11.5221
3 -0.00995379 4.03136 -11.587
2 3.84806 4.00022 -11.6208
2 7.51776 3.9954 -11.5574
3 11.3138 3.88367 -11.5339
2 15.0604 3.64648 -11.4281
2 18.8802 3.90434 -11.8137
3 -18.7096 7.50333 -11.1559
3 -14.9766 7.72141 -11.4886
2 -11.2812 7.66589 -11.3406
3 -7.44241 7.67545 -11.5347
1 -3.86196 7.71178 -11.5538
1 -0.0509623 7.8366 -11.5908
3 3.91464 7.85866 -11.611
1 7.62448 7.82957 -11.5809
3 11.3801 7.71072 -11.4422
3 15.17 7.76983 -11.6761
3 18.8763 7.72955 -11.4011
3 -15.3521 11.4531 -11.4067
2 -11.2324 11.4249 -11.4563
1 -7.56361 11.4711 -11.5899
3 -3.84388 11.4716 -11.6057
1 -0.0416331 11.5069 -11.5415
2 3.73745 11.4327 -11.6213
2 7.70575 11.6996 -11.5883
1 11.613 11.5989 -11.6412
2 15.3609 11.4479 -11.5259
1 -12.079 15.6428 -11.9524
2 -7.79046 15.481 -11.5482
3 -3.89991 15.3622 -11.5313
2 -0.0137544 15.4232 -11.7251
1 3.82475 15.3894 -11.6293
2 7.8043 15.5691 -11.6288
2 11.6377 15.4909 -11.7242
1 -7.79534 18.8265 -11.5349
1 -4.16742 19.2793 -11.7864
1 0.0323707 19.9515 -12.3108
3 4.02649 19.2023 -11.5091
2 7.82889 19.0685 -11.7691
2 -0.0656437 -22.6067 -7.68311
2 -11.2972 -19.0797 -7.70884
1 -7.6979 -18.885 -7.70917
1 -3.93723 -19.0918 -7.71209
2 0.0464655 -19.0462 -7.60911
2 3.66972 -18.9387 -7.7026
2 7.50986 -18.9158 -7.4682
1 11.5552 -18.718 -7.92798
1 -15.2678 -15.2358 -8.12196
2 -11.2785 -15.2004 -7.46516
2 -7.58343 -15.1828 -7.66817
1 -3.87164 -15.1562 -7.63167
1 -0.0673784 -15.1465 -7.64061
2 3.68258 -15.2322 -7.62573
2 7.47171 -15.2409 -7.65256
3 11.4245 -15.1485 -7.70468
3 15.1925 -14.9524 -7.48719
1 -18.6999 -11.6092 -8.19324
3 -15.2104 -11.6967 -7.66334
3 -11.4739 -11.3829 -7.68721
2 -7.51846 -11.5119 -7.66599
1 -3.75737 -11.4906 -7.56629
2 0.0134333 -11.4075 -7.58687
2 3.68868 -11.4533 -7.68245
1 7.57847 -11.3979 -7.55522
2 11.2317 -11.3997 -7.56539
2 15.168 -11.1904 -7.5299
1 18.7084 -11.4534 -7.61845
1 -18.8155 -7.75961 -7.55275
2 -15.1684 -7.62422 -7.79803
2 -11.4442 -7.62688 -7.67679
2 -7.66131 -7.77348 -7.71389
1 -3.95015 -7.54279 -7.49062
3 -0.0802263 -7.62453 -7.59097
2 3.75214 -7.80549 -7.43643
2 7.58621 -7.66432 -7.69656
3 11.3754 -7.55736 -7.68898
2 15.0379 -7.48057 -7.47849
3 18.8276 -7.51324 -7.6231
2 -18.9357 -3.85687 -7.74783
2 -15.251 -3.81915 -7.73544
3 -11.4264 -3.82125 -7.64728
1 -7.59369 -3.90432 -7.65545
3 -3.90785 -3.79081 -7.56862
2 -0.0876755 -3.66201 -7.65503
3 3.73274 -3.83434 -7.59546
2 7.64785 -3.83917 -7.71179
3 11.3151 -3.7793 -7.52493
2 15.0965 -3.76045 -7.59911
3 18.8885 -3.80796 -7.63588
2 -22.7778 0.000364934 -7.7475
1 -19.0169 0.01683 -7.65249
3 -15.2214 -0.0644459 -7.78179
2 -11.3011 -0.0756919 -7.79895
2 -7.60365 -0.0878677 -7.73777
2 -3.78793 0.121043 -7.96799
3 -0.0198269 0.088759 -7.78399
3 3.67742 0.0464082 -7.6908
2 7.49167 0.0623377 -7.67919
1 11.2367 0.00123772 -7.64633
3 15.0487 0.0334329 -7.61043
3 18.8017 0.175392 -7.6336
2 22.4517 0.0793592 -7.69078
3 -19.0719 3.80612 -7.59375
2 -15.2033 3.72081 -7.68902
3 -11.263 3.81121 -7.72581
3 -7.56366 3.74446 -7.63186
2 -3.79347 3.93935 -7.66349
1 0.100711 3.81087 -7.78094
2 3.60956 4.04659 -7.70458
3 7.51998 3.96998 -7.76995
2 11.2672 3.82615 -7.69955
1 15.2379 3.79713 -7.64346
2 18.8556 3.76643 -7.58065
2 -18.7821 7.6403 -7.6246
1 -15.059 7.57513 -7.61354
2 -11.2885 7.56711 -7.71996
3 -7.68243 7.71005 -7.72955
2 -3.78589 7.62124 -7.77222
1 0.0482144 7.73106 -7.84311
3 3.71115 7.77086 -7.73606
2 7.59438 7.74288 -7.76085
3 11.4355 7.72683 -7.61518
2 15.1572 7.72902 -7.74091
1 18.8411 7.63124 -7.6939
3 -18.6738 11.4481 -7.97207
2 -15.1342 11.3862 -7.74664
3 -11.3284 11.6198 -7.75586
3 -7.54387 11.4673 -7.64885
1 -3.785 11.5605 -7.72234
1 0.026256 11.5701 -7.85093
1 3.86228 11.5349 -7.82115
3 7.6996 11.637 -7.79838
3 11.5548 11.554 -7.68792
1 15.2137 11.4826 -7.79319
2 19.121 11.547 -7.53328
2 -15.1101 15.0434 -7.77753
2 -11.159 15.3358 -7.68148
3 -7.6559 15.18 -7.68569
2 -3.73723 15.3504 -7.6849
3 0.110153 15.4155 -7.82459
1 3.86484 15.4716 -8.02728
2 7.81609 15.3101 -7.66761
2 11.4463 15.3185 -7.88308
3 15.2789 15.2788 -7.80519
1 -11.3345 18.717 -7.69486
3 -7.43967 18.8705 -7.63264
1 -3.82223 19.0846 -7.86453
3 -0.0107252 19.1746 -7.76807
1 3.82819 19.1199 -7.83013
2 7.71469 19.0095 -7.6534
1 11.5672 19.0226 -8.13288
2 0.205556 22.7468 -7.64009
2 -3.45134 -22.918 -4.2022
3 -0.142261 -22.7156 -3.86771
2 3.63317 -22.9852 -3.86669
1 -12.0861 -19.3506 -3.85494
3 -7.6338 -19.08 -3.84255
1 -3.98098 -19.116 -3.87042
1 -0.0823507 -19.0597 -3.91626
1 3.66004 -19.0162 -3.65122
1 7.39039 -19.1242 -3.88136
3 11.4617 -18.7893 -3.77274
1 -15.6533 -15.4639 -3.85967
3 -11.2586 -15.161 -3.7704
3 -7.59718 -15.2104 -3.71162
3 -3.89305 -15.1603 -3.77664
2 -0.06635 -15.0747 -3.76475
1 3.64757 -15.2369 -3.68433
2 7.31173 -15.245 -3.71715
2 11.4008 -15.1101 -3.65844
3 15.441 -15.1195 -3.79565
3 -18.8471 -11.5605 -3.78671
2 -15.1165 -11.4875 -3.90576
1 -11.3886 -11.5291 -3.86948
3 -7.64676 -11.4813 -3.81112
1 -3.67125 -11.4563 -3.69963
1 -0.124765 -11.5339 -3.57897
2 3.70796 -11.4113 -3.47772
2 7.57645 -11.488 -3.59973
2 11.3564 -11.4195 -3.75523
2 15.159 -11.5118 -3.80005
1 19.0099 -11.3432 -3.88278
2 -18.9078 -7.83114 -3.84116
1 -15.2085 -7.70711 -3.92685
2 -11.4085 -7.81888 -3.94085
2 -7.63207 -7.73481 -3.7531
2 -3.85985 -7.56196 -3.68545
2 -0.0208647 -7.60153 -3.72584
2 3.76281 -7.86558 -3.63285
2 7.6493 -7.70866 -3.70225
1 11.3203 -7.54089 -3.81052
1 14.8617 -7.39507 -3.83904
2 18.6741 -7.5492 -3.80536
1 -21.6393 -4.88589 -4.01383
1 -19.127 -4.06948 -3.79332
1 -14.9391 -3.96431 -3.62483
1 -11.3563 -3.81007 -3.74802
1 -7.58182 -3.81182 -3.86832
2 -3.7118 -3.88582 -3.56286
1 -0.080789 -3.70216 -3.73706
1 3.66841 -3.96574 -3.71291
1 7.50243 -3.95689 -3.77012
3 11.2532 -3.75863 -3.6846
3 15.0033 -3.85086 -3.66965
1 18.8804 -3.73379 -3.70837
3 22.5673 -3.75192 -3.70807
2 -22.6664 -0.146239 -3.75185
3 -18.9087 -0.0791353 -4.00009
3 -14.9528 -0.0838946 -3.92875
2 -11.3066 -0.108692 -3.76155
3 -7.58046 -0.0741123 -3.95135
2 -3.89831 -0.000456915 -3.75434
2 -0.058804 0.0361242 -3.82781
3 3.53545 -0.0870549 -3.86904
2 7.54248 -0.0907002 -3.74043
2 11.2987 -0.14741 -3.83336
2 15.0239 -0.129749 -3.92654
2 18.8252 0.0807724 -3.8165
3 22.4699 0.0561741 -4.01949
3 -22.7639 3.74478 -3.9501
1 -18.8292 3.7074 -3.93075
3 -15.0608 3.82311 -3.72204
2 -11.2554 3.70517 -3.92416
2 -7.54948 3.69633 -3.8941
1 -3.65471 3.76934 -3.9722
2 0.128884 3.93382 -3.94104
2 3.80922 3.8942 -3.81688
2 7.50734 3.83114 -3.93855
3 11.3124 3.80289 -3.82413
2 15.1471 3.97902 -3.7739
2 18.8205 3.89562 -3.86042
1 22.5104 3.76802 -3.90586
2 -18.6947 7.45227 -3.80611
2 -15.0485 7.73736 -3.7673
2 -11.2047 7.60303 -3.90374
2 -7.56681 7.68685 -4.05553
2 -3.79365 7.51506 -4.09333
2 -0.0503458 7.5805 -3.95998
1 3.7851 7.65 -3.92386
2 7.62185 7.94797 -3.89717
3 11.3577 7.7208 -3.94312
2 15.1894 7.69771 -3.81851
2 18.9742 7.69729 -3.94071
2 -18.7209 11.4573 -3.96838
1 -15.167 11.3207 -3.97122
3 -11.2099 11.4239 -3.96967
1 -7.52362 11.5138 -3.98018
3 -3.67773 11.4452 -4.16535
1 0.0622104 11.4483 -4.15143
1 3.73647 11.4115 -4.0257
1 7.65968 11.6161 -3.89338
3 11.4709 11.5416 -3.91568
2 15.1835 11.5593 -3.77154
2 19.3637 11.8048 -4.34503
2 -15.0798 15.1621 -3.84855
3 -11.2633 15.1077 -3.93272
3 -7.51323 15.247 -4.01178
3 -3.56814 15.2501 -4.00747
1 0.128123 15.2361 -3.87598
2 3.82353 15.3109 -3.85329
2 7.71416 15.3072 -3.89973
2 11.3719 15.3528 -3.73316
2 15.3168 15.2712 -3.94069
1 -11.4731 19.0731 -3.9204
2 -7.56831 19.0222 -3.79438
3 -3.71713 19.0614 -3.84848
2 0.107927 19.0656 -3.94764
3 3.89001 19.1341 -3.95701
3 7.86773 19.2325 -4.0101
2 12.1674 19.921 -4.06988
3 -3.75029 22.8166 -3.84061
2 -0.0499546 22.7786 -3.88265
2 4.04902 22.8318 -3.99756
2 -6.64568 -23.1949 -0.590122
1 -3.4081 -23.0115 0.284872
3 -0.21964 -22.9696 0.0224709
1 3.6478 -22.9749 -0.158049
2 7.38624 -22.8228 -0.116953
3 -11.3649 -18.9229 0.060871
1 -7.65969 -19.1112 0.0730941
1 -3.8875 -19.0365 0.0977923
3 0.039836 -19.0794 0.10947
3 3.65587 -19.1419 0.051944
2 7.52451 -19.2586 0.00712369
2 11.2482 -19.0868 -0.0284268
2 -15.0942 -15.1309 0.147679
2 -11.3792 -15.2196 0.112015
3 -7.74689 -15.2896 0.0630966
2 -3.75958 -15.1713 0.0850466
3 -0.0806976 -15.3357 0.193554
1 3.71395 -15.3474 0.0745704
3 7.54224 -15.4217 0.0958988
1 11.4554 -15.2335 0.108018
2 15.1075 -15.2541 0.121057
2 -19.0644 -11.4435 0.149272
2 -15.0799 -11.5225 -0.132898
3 -11.2712 -11.573 0.187335
3 -7.56562 -11.5039 0.0877034
1 -3.8587 -11.4984 0.215411
3 0.0321281 -11.6729 0.21956
2 3.71142 -11.4415 0.125701
3 7.4982 -11.6002 0.122252
1 11.2201 -11.4515 0.0691785
1 15.0406 -11.4507 0.0969439
2 19.0236 -11.5142 0.0737306
2 -22.5685 -7.53817 -0.0255096
3 -18.8324 -7.74442 0.0405478
3 -15.0721 -7.73978 0.0729194
3 -11.1975 -7.77361 0.174543
2 -7.47612 -7.79301 0.138876
2 -3.79465 -7.74453 0.205669
1 0.0589407 -7.57718 0.17888
3 3.66891 -7.80594 0.178889
2 7.60591 -7.78016 0.136267
3 11.3658 -7.66154 0.161975
1 14.9829 -7.41696 0.119835
2 18.7581 -7.52049 0.216395
2 22.5439 -7.57401 0.299106
3 -22.4781 -4.00345 0.00831565
2 -18.8197 -4.02534 0.183295
2 -15.0685 -3.93832 0.113947
2 -11.2318 -3.95582 0.130366
2 -7.60888 -3.88073 0.0361884
3 -3.69909 -3.96589 0.235834
2 0.00932362 -3.95934 0.232115
2 3.68615 -3.84936 0.0719088
1 7.51334 -4.00913 0.0851514
1 11.2224 -3.81155 0.0844857
3 14.9227 -3.62028 0.110215
3 18.8166 -3.70223 0.0939357
2 22.4483 -3.69792 0.207254
1 -22.8512 -0.205946 -0.224114
2 -18.77 -0.124794 -0.0562449
2 -15.0254 -0.191804 -0.0548496
1 -11.3287 -0.0973722 -0.111863
3 -7.5893 -0.0877605 -0.0306082
2 -3.98479 -0.0174639 0.0539596
2 0.04479 -0.0642212 0.208629
1 3.84392 -0.126398 0.0362114
3 7.48778 -0.109083 0.147315
3 11.2417 0.0506515 0.00795833
3 15.0834 0.144062 0.0248684
3 18.8119 0.0792633 0.0901398
3 22.6562 -0.0117265 0.237573
1 -22.6894 3.53796 -0.146476
2 -18.7697 3.72512 0.0826383
1 -15.0429 3.67761 0.0147518
3 -11.3668 3.69828 -0.0830287
2 -7.53914 3.69183 -0.128347
2 -3.80446 3.73638 -0.132093
1 0.00858765 3.8123 -0.170318
1 3.66668 3.82413 -0.0431986
2 7.54423 4.02665 -0.0804482
1 11.2818 3.92887 -0.202505
3 15.1628 3.79239 0.0168629
2 18.8692 3.83056 0.0584111
2 22.5123 3.76119 -0.0280778
3 -22.4134 7.33029 -0.00455726
3 -18.5304 7.5036 -0.0206549
1 -14.9627 7.56926 0.0190492
2 -11.2887 7.52491 -0.0170885
2 -7.49148 7.67854 -0.149388
2 -3.67939 7.74866 -0.177224
1 0.0107681 7.59305 -0.124508
3 3.78361 7.71511 -0.11711
3 7.59012 7.88212 -0.0614009
3 11.5259 7.85158 -0.0133794
2 15.2624 7.7143 -0.0212263
2 19.0026 7.57927 -0.0194453
1 22.5095 7.60035 -0.0767063
1 -19.0663 11.547 -0.0306966
1 -15.0713 11.3295 0.0235252
3 -11.3179 11.4616 -0.0137058
3 -7.43715 11.5167 -0.274995
2 -3.53972 11.4281 -0.231159
3 0.0291821 11.4418 -0.167952
2 3.88633 11.3248 -0.126884
2 7.77531 11.5688 -0.204634
2 11.5529 11.4763 -0.121758
2 15.0938 11.6556 0.11913
3 19.1283 11.5602 0.0265313
3 -14.9799 15.0322 0.0355991
3 -11.3196 15.0906 -0.100688
2 -7.42567 15.3246 -0.0845664
2 -3.64756 15.2541 0.0258639
1 -0.0142105 15.1547 -0.110574
2 3.90202 15.2152 -0.181575
1 7.69983 15.3987 -0.200599
3 11.4383 15.3864 -0.0352281
3 15.3416 15.4492 0.0841891
2 -11.2353 18.9824 -0.176104
3 -7.51513 18.891 -0.226689
2 -3.70953 19.0428 -0.0989451
1 0.0337209 18.8876 -0.134953
1 3.89405 19.0356 -0.0131106
3 7.61027 19.1195 0.0578531
3 11.4831 19.1288 0.0628921
3 -7.50324 22.6749 -0.187977
3 -3.67944 22.6966 -0.0987681
1 0.00319999 22.7741 -0.113933
2 3.73865 23.021 -0.058852
3 7.64011 22.9016 -0.16709
2 -4.01838 -23.1002 3.91776
1 0.289807 -23.1959 3.60499
2 3.86139 -23.0056 3.92584
2 -11.5106 -19.1783 4.26451
3 -7.5962 -18.9952 3.82969
1 -4.00415 -19.0748 3.78731
1 -0.035062 -19.2007 3.91842
2 3.88832 -19.2604 3.88729
2 7.5882 -19.2254 3.78647
2 11.3076 -19.1219 3.99479
2 -15.1149 -15.343 3.96801
2 -11.3272 -15.239 3.87124
2 -7.71366 -15.2207 4.00006
3 -3.89775 -15.2854 3.95525
2 -0.217071 -15.2897 3.96618
3 3.84279 -15.4782 3.79354
1 7.60084 -15.3996 3.99052
3 11.2983 -15.4439 4.1138
2 15.1124 -15.3094 4.04869
2 -18.9578 -11.4781 3.85407
3 -15.2265 -11.5564 3.78543
1 -11.3243 -11.4551 3.86146
3 -7.45734 -11.4962 3.9605
2 -3.76417 -11.5403 3.89375
2 -0.0830863 -11.5935 3.87647
1 3.72797 -11.6727 4.04362
2 7.54282 -11.5848 3.93206
2 11.3681 -11.5316 4.02455
2 14.9181 -11.4863 3.91347
3 18.7123 -11.3952 3.98954
2 -18.9335 -7.7443 3.86159
3 -14.875 -7.69707 3.72209
3 -11.2988 -7.7736 3.85747
3 -7.43224 -7.71299 3.96309
3 -3.82237 -7.77089 4.01646
2 -0.0232059 -7.74272 3.87752
3 3.6891 -7.94105 3.97451
2 7.49654 -7.81868 4.0016
2 11.2986 -7.49675 3.90032
2 15.1443 -7.5001 3.88601
1 18.7909 -7.47613 3.94509
3 -22.4742 -4.03121 3.84884
2 -18.8553 -3.88791 3.8984
2 -14.9933 -3.9555 4.01398
2 -11.2807 -3.94238 3.82112
2 -7.49529 -4.0523 3.85859
3 -3.73792 -4.00627 3.92152
3 0.0552981 -3.89841 3.86734
3 3.80451 -4.01498 3.95311
2 7.42698 -3.97087 3.89668
3 11.2326 -3.88615 4.05121
2 15.14 -3.66331 3.96487
3 18.8293 -3.67894 4.09874
2 22.6553 -3.90193 3.93395
2 -22.5855 -0.0576572 3.74999
1 -18.8266 -0.118554 3.90667
2 -15.0627 -0.164662 4.01738
1 -11.3562 -0.222351 3.94399
2 -7.48203 -0.10986 3.79991
1 -3.84005 -0.00611557 3.95005
2 0.0523028 -0.111369 3.83092
2 3.82781 -0.0490932 3.86108
2 7.66323 0.000862932 3.84033
1 11.292 -0.00443864 3.86272
1 14.9849 -0.0281573 3.77097
3 18.8479 0.143812 3.89879
1 22.7648 0.101138 3.79702
2 -22.4086 3.66094 3.62074
2 -18.9002 3.81506 3.91081
2 -15.066 3.60424 3.76504
2 -11.1277 3.58978 3.86318
2 -7.5696 3.76807 3.81393
2 -3.74315 3.79753 3.89429
2 0.00840013 3.61952 3.75925
2 3.91763 3.84106 3.79157
1 7.43528 3.77011 3.8765
1 11.3512 3.85168 3.7565
2 15.0204 3.85679 3.77054
2 18.7436 3.78346 3.7853
2 22.8179 3.85429 3.89433
2 -18.7267 7.3831 3.7842
1 -15.0918 7.49117 3.78358
2 -11.1154 7.47428 3.69381
2 -7.39521 7.57769 3.84689
2 -3.74124 7.65088 3.82306
2 -0.00189102 7.63245 3.62756
2 3.81522 7.57353 3.71469
3 7.5873 7.66944 3.774
3 11.4199 7.7536 3.84573
3 15.1671 7.72117 3.91406
3 19.024 7.67815 3.84424
2 -18.7261 11.4235 4.02518
2 -14.9449 11.3497 3.70487
1 -11.2065 11.362 3.59859
1 -7.42937 11.4098 3.76577
1 -3.52204 11.5181 3.6333
3 0.0283306 11.4835 3.69369
2 3.79311 11.3767 3.76487
1 7.58586 11.4749 3.78704
2 11.3045 11.591 3.82941
3 15.101 11.6389 3.89391
3 18.9972 11.4803 3.81852
3 -15.0573 15.234 3.83542
3 -11.1551 15.049 3.73999
2 -7.3315 15.0698 3.59604
3 -3.63718 15.249 3.75851
3 0.0761314 15.3037 3.71347
3 3.8563 15.2343 3.73199
2 7.76089 15.3351 3.71778
1 11.3239 15.1829 3.90808
1 15.2003 15.4435 4.00602
2 -11.5524 19.14 4.00217
1 -7.49279 18.9588 3.76868
2 -3.86774 18.9914 3.61515
1 0.00854085 19.0525 3.72561
2 3.8127 19.1442 3.74148
2 7.64384 19.1782 3.80959
2 11.4727 19.1801 3.98455
3 -3.72185 22.5894 3.74674
1 -0.127557 22.8246 3.7558
2 3.67863 22.8277 3.6603
3 -0.293987 -22.8555 7.23447
1 -11.4456 -18.8799 7.8638
1 -7.56992 -19.1048 7.71383
2 -3.89739 -19.2821 7.66151
2 0.0514626 -19.1995 7.78791
2 3.75135 -19.3874 7.89893
3 7.56834 -19.1896 7.835
1 11.2659 -18.9208 7.93004
3 -14.9368 -15.1159 7.8741
1 -11.4297 -15.1217 7.80667
2 -7.48748 -15.4301 7.71704
3 -3.77486 -15.4468 7.74786
3 -0.100139 -15.456 7.84282
1 3.74366 -15.4606 7.8169
3 7.45436 -15.3559 7.76287
1 11.2711 -15.2845 7.81667
3 14.7805 -15.4375 7.88868
2 -18.7612 -11.528 7.79404
2 -15.2412 -11.3417 7.59703
2 -11.3557 -11.4022 7.6064
2 -7.51448 -11.5174 7.73801
2 -3.93617 -11.6691 7.80353
1 -0.0993159 -11.6246 7.68723
3 3.79009 -11.6386 7.7812
3 7.54552 -11.5841 7.7773
2 11.3956 -11.3844 7.82931
2 14.9226 -11.3715 7.70023
1 18.9944 -11.9649 8.13183
2 -18.9169 -7.58165 7.60655
2 -15.2002 -7.69673 7.63229
1 -11.2667 -7.75374 7.67143
2 -7.41496 -7.64926 7.85111
1 -3.75737 -7.90587 7.67444
2 0.078745 -7.72924 7.80422
2 3.71092 -7.76432 7.76764
3 7.54683 -7.67412 7.75615
1 11.3052 -7.59517 7.67211
3 15.0329 -7.61064 7.70127
3 18.7378 -7.6834 7.9301
1 -18.9312 -3.94157 7.56464
1 -15.0828 -3.86462 7.62733
3 -11.1596 -3.95792 7.68565
2 -7.42802 -4.05839 7.68219
2 -3.66727 -3.96863 7.79764
3 0.0135019 -4.09275 7.72309
2 3.72355 -3.7723 7.68323
1 7.55919 -3.75465 7.70929
1 11.1974 -3.85676 7.79614
1 15.1439 -3.6941 7.61056
2 18.9754 -3.70871 7.62585
3 -22.6819 -0.175601 7.52512
1 -18.8665 -0.192127 7.62341
2 -14.9848 -0.177346 7.61404
1 -11.2792 -0.056918 7.82848
2 -7.56711 -0.0329459 7.77622
3 -3.75949 -0.168126 7.65195
1 0.0714748 -0.117867 7.62869
2 3.70037 0.060311 7.46539
3 7.77137 0.0121756 7.79882
3 11.3609 -0.0298267 7.63757
3 15.0111 -0.081437 7.71542
2 18.8432 0.122644 7.73353
2 22.9546 -0.000656781 7.79304
1 -18.7911 3.71036 7.69241
2 -15.0132 3.54086 7.68822
2 -11.1729 3.60291 7.76363
1 -7.45629 3.66071 7.6887
3 -3.7169 3.76356 7.76991
2 -0.0669854 3.76228 7.65203
1 3.82756 3.76737 7.56961
2 7.68056 3.82814 7.43274
3 11.3203 3.82839 7.62488
2 15.1616 3.77288 7.56682
2 18.9284 4.01893 7.71856
3 -18.8052 7.52902 7.56415
2 -14.9091 7.54186 7.66136
2 -11.1548 7.40189 7.70325
2 -7.38627 7.41592 7.65711
3 -3.60807 7.62163 7.63662
1 0.0594309 7.55122 7.47411
1 3.82275 7.62745 7.58749
1 7.53396 7.69577 7.43638
2 11.4109 7.67415 7.56115
2 15.0203 7.65187 7.47042
1 18.7785 7.80117 7.67607
3 -18.6133 11.3291 7.56652
1 -14.943 11.3544 7.47161
3 -11.192 11.1381 7.51508
2 -7.52165 11.4892 7.52974
2 -3.79037 11.4921 7.56446
2 0.108222 11.3995 7.54633
2 3.54042 11.5028 7.55576
2 7.57218 11.374 7.57421
1 11.4127 11.4816 7.61076
2 15.0483 11.5125 7.56626
1 18.9979 11.5036 7.40653
2 -14.8034 15.0304 7.61178
1 -11.1158 15.097 7.50445
3 -7.45594 15.194 7.55288
3 -3.7389 15.2585 7.4103
3 0.125824 15.3118 7.52683
3 3.83658 15.4304 7.65917
3 7.50129 15.2989 7.58801
2 11.2956 15.2724 7.61939
3 15.0615 14.9838 7.57529
3 -11.175 18.6908 7.79383
2 -7.48835 18.9929 7.40056
3 -3.65467 18.9398 7.48336
2 0.102796 19.0213 7.52836
2 3.75741 19.3293 7.66164
2 7.60579 18.9761 7.62377
2 11.1816 18.9961 7.78822
2 0.0162275 22.815 7.36162
3 -7.83591 -19.0375 11.304
1 -3.93191 -19.6424 11.6492
2 -0.055716 -19.7035 11.6773
3 3.77417 -19.2694 11.6784
3 7.71658 -19.049 11.7103
1 -11.9093 -15.5556 12.184
2 -7.60061 -15.4663 11.5883
2 -3.8706 -15.4369 11.4746
1 -0.162693 -15.5447 11.6014
3 3.80241 -15.3251 11.6798
3 7.46957 -15.3038 11.6046
1 11.5174 -15.4947 11.8518
2 -15.2981 -11.7152 11.7655
3 -11.4029 -11.6549 11.5211
2 -7.65486 -11.3924 11.719
2 -3.96726 -11.5374 11.6908
1 0.0101578 -11.5399 11.6502
3 3.75347 -11.5667 11.5793
2 7.53734 -11.639 11.6334
3 11.3834 -11.7638 11.7521
1 15.0636 -11.5023 11.6086
3 -18.719 -7.72098 11.6301
3 -15.1995 -7.83064 11.6617
2 -11.2596 -7.85867 11.4703
3 -7.62754 -7.7017 11.6344
3 -3.82338 -7.78051 11.7345
2 0.00386804 -7.72386 11.7774
1 3.79092 -7.79261 11.6716
1 7.36691 -7.65467 11.8525
2 11.2259 -7.52426 11.6029
1 15.1727 -7.6472 11.7234
1 19.054 -8.06702 11.8176
2 -19.2842 -4.64931 11.7206
2 -14.9429 -3.86971 11.6225
2 -11.4039 -4.01056 11.6591
2 -7.5053 -3.92987 11.6272
2 -3.69095 -3.91374 11.4311
1 0.162307 -3.9894 11.4365
3 3.87225 -3.93126 11.4866
2 7.39157 -3.73597 11.5342
2 11.292 -3.79333 11.7194
2 15.2944 -3.74124 11.7008
2 19.0735 -3.82701 11.8869
3 -19.0116 -0.0736955 11.4935
2 -15.1228 -0.28066 11.6286
3 -11.3276 -0.138682 11.6287
1 -7.56669 -0.128265 11.5419
2 -3.65944 -0.108149 11.5435
3 -0.0173335 -0.187752 11.4325
1 3.80084 -0.125818 11.4677
1 7.47889 -0.0808569 11.4652
2 11.2254 -0.0457418 11.4759
2 15.137 0.0294547 11.6015
1 18.9671 -0.0226762 11.7858
2 -18.9142 3.78703 11.3699
1 -15.1789 3.67085 11.4358
1 -11.3025 3.64165 11.5824
1 -7.54054 3.5116 11.5738
3 -3.80806 3.62121 11.5484
3 0.0281406 3.80832 11.4047
1 3.81005 3.73638 11.5511
3 7.42218 3.75435 11.398
2 11.106 3.75195 11.3012
3 15.0379 3.78447 11.4562
3 18.7624 3.79126 11.5694
2 -18.6469 7.67153 11.3016
1 -14.984 7.58738 11.398
2 -11.2242 7.39626 11.3959
1 -7.35851 7.40484 11.5592
2 -3.79738 7.40878 11.3659
1 0.0442924 7.38753 11.6056
3 3.86606 7.66127 11.3399
2 7.64263 7.45114 11.3766
1 11.3262 7.59628 11.3366
1 15.0652 7.64218 11.4287
1 18.567 7.69516 11.5586
2 -14.9293 11.5958 11.5335
3 -11.2037 11.3256 11.4214
1 -7.42214 11.2495 11.3939
3 -3.67307 11.4222 11.3854
2 0.0787294 11.1277 11.3069
1 3.78631 11.3979 11.4054
2 7.6171 11.5322 11.4407
2 11.3215 11.5224 11.2903
2 15.2721 11.9463 11.8764
3 -11.1975 15.1683 11.2653
2 -7.61388 15.3655 11.3754
2 -3.70354 15.1936 11.48
2 0.0821355 15.2291 11.4379
2 3.74802 15.203 11.4543
1 7.51891 15.2401 11.5411
2 11.2194 15.3621 11.547
1 -7.5941 18.7538 11.396
1 -4.02972 19.2387 11.5518
2 0.00733561 19.1756 11.5457
2 3.73162 19.1345 11.4615
3 7.54936 18.9906 11.5542
3 -7.70881 -15.2655 15.2373
2 -3.89357 -15.6898 15.5219
2 -0.00756632 -15.4128 15.4573
1 3.79384 -16.4839 16.3651
2 7.77588 -15.5952 15.4641
3 -11.1184 -11.4206 15.3284
2 -7.61242 -11.6367 15.3654
2 -3.79924 -11.7266 15.5762
3 -0.214871 -11.5856 15.3704
2 3.76937 -11.6266 15.7232
3 7.65251 -11.6869 15.4683
2 11.4512 -11.6867 15.6157
3 -14.8615 -7.8041 15.3904
2 -11.4436 -7.83383 15.4547
3 -7.59556 -7.77492 15.5067
1 -3.98179 -7.82636 15.5442
2 0.121221 -7.83944 15.5036
2 3.71242 -7.91016 15.4427
3 7.42138 -7.77959 15.5808
2 11.2728 -7.65959 15.5667
3 15.0808 -7.71011 15.2419
2 -15.3866 -4.0066 15.6198
2 -11.4201 -3.8939 15.4859
1 -7.51457 -3.96311 15.4467
2 -3.79583 -3.87099 15.42
1 -0.0256591 -3.83213 15.3116
1 3.74324 -3.84728 15.3248
1 7.46722 -3.8525 15.5027
2 11.0401 -3.80243 15.3667
3 15.1976 -3.95053 15.5565
3 -15.2921 -0.177738 15.4033
1 -11.3602 -0.184673 15.5443
3 -7.46857 -0.165988 15.3501
2 -3.85685 -0.0159232 15.2353
1 -0.174821 0.0366965 15.2878
3 3.88883 -0.0833371 15.3
1 7.5444 0.0303779 15.2941
1 11.2713 -0.173324 15.467
1 15.1225 -0.0620512 15.5646
3 -15.0987 3.77199 15.2716
1 -11.4215 3.78349 15.4148
3 -7.52099 3.60367 15.3234
3 -3.83317 3.62749 15.2465
2 0.0269565 3.46304 15.3998
2 3.88263 3.8195 15.2684
3 7.39906 3.6338 15.1766
3 11.4209 3.79505 15.2155
2 15.0982 3.90926 15.334
2 -14.9716 7.65544 15.2396
2 -11.2425 7.5414 15.2688
2 -7.51695 7.45242 15.3065
2 -3.75684 7.45043 15.2457
2 0.0849557 7.46292 15.2492
2 3.67807 7.68866 15.3176
1 7.57978 7.62807 15.1724
1 11.3459 7.61718 15.4278
3 14.8308 7.70983 14.9951
1 -11.8008 11.6351 15.5624
1 -7.49725 11.2848 15.1522
2 -3.71267 11.2058 15.1521
2 0.0200475 11.3157 15.3529
2 3.74783 11.2265 15.4403
2 7.69681 11.4966 15.2397
2 11.4078 11.5534 15.2517
2 -8.22123 15.3005 15.1082
2 -4.00323 15.1886 15.3111
2 -0.0226599 15.0538 15.2575
2 3.56851 15.3546 15.3031
1 7.73415 15.4296 15.6421
1 -7.56358 -11.7618 19.181
2 -4.13177 -12.009 19.5088
3 -0.096883 -11.6186 19.3222
1 3.93723 -12.3405 19.544
3 7.69194 -11.7532 19.2918
1 -11.3206 -7.87507 19.1906
3 -7.53193 -7.88956 19.3046
2 -3.87944 -7.81457 19.3198
2 0.423534 -7.94255 19.811
2 3.60516 -7.77789 19.3726
3 7.48976 -7.50003 19.2006
1 11.3993 -7.92052 19.2983
2 -11.4758 -3.84328 19.3726
1 -7.48067 -3.88859 19.3733
1 -3.78401 -3.91922 19.3578
2 0.077756 -3.79017 19.2166
2 3.63439 -3.95474 19.1139
1 7.56254 -3.77172 19.1703
1 11.3482 -3.85711 19.314
2 -11.2576 -0.0784951 19.3122
2 -7.50103 -0.0483261 19.0587
1 -3.75402 -0.0683742 19.2027
1 0.0222016 0.0642436 19.2023
2 3.87312 -0.0728312 19.1016
3 7.58413 -0.002344 19.1479
2 11.1421 0.0173132 19.082
2 -11.7599 3.8789 19.0719
1 -7.66115 3.75719 19.1414
2 -3.81163 3.65042 19.1774
2 0.0873952 3.68385 19.063
2 3.90749 3.67151 19.1293
3 7.506 3.74214 19.1124
3 11.2617 3.70966 19.0577
2 -11.2401 7.6289 18.9554
2 -7.68566 7.56246 18.9206
2 -3.67004 7.37616 19.0521
2 0.0194341 7.51639 18.9495
2 3.75024 7.61659 19.0783
1 7.63013 7.78728 18.9494
3 11.22 7.56493 18.8211
1 -7.79776 11.6059 18.664
1 -3.77495 11.3976 19.0927
3 -0.0626423 11.2511 18.9323
1 3.69193 11.5381 19.3167
3 7.7156 11.2917 18.9849
2 -0.330084 -6.89011 23.6088
1 -3.92245 -3.65076 23.2073
1 0.20739 -3.72049 22.9543
2 4.1393 -3.84105 23.0391
1 -7.55201 0.229537 23.0235
2 -3.64407 0.00806539 23.0065
1 -0.0181802 0.0607681 22.8026
2 4.0382 0.0819479 22.9152
3 7.55706 0.347681 22.6206
1 -3.95079 3.97754 22.9116
3 -0.0737481 3.82675 22.7084
3 3.82798 3.8851 22.7183
3 0.072375 7.45589 22.6639
2 -5.60249 -5.709 -22.8526
2 -1.83357 -5.56082 -22.7655
1 1.77603 -5.56273 -22.8338
2 5.83883 -5.45294 -22.9232
1 -5.75915 -1.94592 -22.8009
2 -1.99161 -1.87316 -22.9932
2 1.66501 -1.80724 -22.7611
2 5.64125 -1.60134 -22.8677
1 -5.62166 1.99973 -22.6939
2 -2.06407 1.949 -22.8231
2 1.66354 1.89231 -23.0561
2 5.76188 1.99535 -22.9352
2 -5.7919 6.12228 -22.8242
3 -1.79659 5.91501 -23.013
2 1.76705 5.8843 -22.8863
2 6.05505 5.87356 -22.971
1 -5.99073 -13.3509 -18.9002
2 -2.04375 -13.1618 -19.1206
1 1.97671 -13.2248 -19.0915
2 5.87085 -13.2509 -18.8944
3 -9.42312 -9.42976 -19.0389
2 -5.97427 -9.64817 -19.4358
1 -1.75576 -9.67894 -19.1003
2 1.8046 -9.46697 -19.3376
3 5.71714 -9.47333 -19.2894
2 9.60398 -9.47039 -18.9775
1 -13.3041 -6.01661 -19.1217
1 -9.83588 -5.69229 -19.334
3 -5.72755 -5.65 -19.1581
2 -1.89074 -5.51323 -19.1192
3 1.89372 -5.63496 -19.2343
2 5.76246 -5.54386 -19.302