4321
 Atoms. Timestep: 4193
3 -0.0891726 -7.43382 -22.9089
2 -3.90597 -3.64307 -22.9655
1 -0.020611 -3.79937 -22.9287
2 3.72504 -3.90009 -23.1147
1 -7.52605 0.119028 -22.7967
1 -3.94732 0.0935525 -22.9414
1 -0.276725 0.180904 -23.1343
2 3.48613 0.241848 -23.028
2 7.44449 -0.0133269 -23.0337
3 -3.86909 4.24343 -22.9064
2 -0.159998 4.07562 -22.846
2 3.80536 3.90065 -23.0401
3 0.128708 7.86813 -22.9511
1 -7.75593 -11.308 -19.0248
2 -4.02871 -11.5504 -19.044
1 -0.0404491 -11.6583 -19.3731
2 4.34253 -11.7561 -19.5488
2 7.62383 -11.4321 -19.1711
3 -11.4224 -7.77043 -19.1101
1 -7.64646 -7.52008 -19.1547
1 -3.94991 -7.47168 -19.2547
2 -0.109707 -7.38757 -19.0212
2 3.56963 -7.54104 -19.104
2 7.50204 -7.64197 -19.1895
1 11.3194 -7.44888 -19.1196
1 -11.6 -3.76594 -19.4993
2 -7.75317 -3.82346 -19.1648
1 -3.77161 -3.80407 -19.1108
1 -0.0584582 -3.62152 -19.2391
2 3.78312 -3.81483 -19.3133
2 7.45701 -3.72284 -19.1216
3 11.6428 -3.68187 -18.9496
1 -11.3401 0.342243 -19.4181
2 -7.76616 0.139942 -19.3319
2 -3.94262 0.198999 -19.257
1 0.0033537 0.112374 -19.2263
2 3.78087 0.0478914 -19.3691
2 7.53683 0.133704 -19.3938
1 11.6478 -0.0544595 -19.4454
2 -11.3316 4.08105 -19.3432
1 -7.63821 4.06166 -19.2532
2 -3.94657 3.96501 -19.2154
1 -0.171253 3.98522 -19.2565
1 3.76013 3.9208 -19.1993
2 7.72277 4.0748 -19.5115
2 11.4823 4.13446 -19.2436
3 -11.5008 7.71812 -19.014
1 -7.60999 7.75356 -19.162
1 -3.74161 7.98745 -19.2373
2 0.0139287 7.8796 -19.2219
2 3.78798 7.80898 -19.2743
3 7.64653 7.72674 -19.2252
2 11.5049 8.0004 -19.2819
1 -7.79836 11.8245 -19.065
3 -3.78679 11.7389 -19.1588
3 0.0144067 11.6004 -19.3715
1 3.89257 11.7504 -19.7202
3 7.72901 11.7374 -19.043
1 -7.99874 -15.401 -15.689
3 -3.64777 -15.0326 -15.2251
3 -0.0748351 -15.2467 -15.2704
2 3.6776 -15.2029 -15.2768
3 7.43778 -14.9105 -15.1171
1 -11.3793 -11.5111 -15.4497
3 -7.64667 -11.5675 -15.3775
1 -3.84697 -11.3482 -15.2926
2 -0.0286288 -11.2841 -15.2923
1 3.58804 -11.302 -15.3294
1 7.53154 -11.3614 -15.4008
1 11.4485 -11.455 -15.4249
2 -15.2542 -8.0027 -15.8284
2 -11.4712 -7.61669 -15.5131
2 -7.55624 -7.60535 -15.4292
2 -3.78101 -7.44084 -15.4778
1 -0.0747843 -7.46823 -15.398
2 3.74707 -7.49923 -15.2465
2 7.35915 -7.60928 -15.2204
2 11.252 -7.68285 -15.0805
2 15.0438 -8.01815 -15.294
2 -15.1982 -3.94005 -15.627
2 -11.5289 -3.62985 -15.4285
2 -7.63324 -3.80842 -15.4846
2 -3.96535 -3.6211 -15.4774
2 -0.0336506 -3.63629 -15.3421
3 3.72781 -3.88017 -15.4047
3 7.47473 -3.84574 -15.2503
2 11.3123 -3.84042 -15.3104
3 15.2161 -3.94787 -15.3437
1 -15.2356 0.159436 -15.2593
2 -11.388 0.244448 -15.5188
1 -7.81706 0.149433 -15.4756
3 -4.07111 0.0254319 -15.3215
1 -0.135198 0.0963232 -15.5192
2 3.71376 0.195324 -15.4775
2 7.44728 0.0531206 -15.293
2 11.351 0.0200026 -15.3991
2 14.9591 -0.057608 -15.3031
1 -15.3308 3.77241 -15.4276
1 -11.4 3.92371 -15.3879
1 -7.66219 4.04318 -15.2802
1 -3.90786 3.84463 -15.5418
2 -0.19736 3.77654 -15.4219
1 3.8111 3.91949 -15.3806
1 7.61981 3.78326 -15.1953
2 11.403 3.87107 -15.5303
1 15.0661 3.89871 -15.4362
2 -15.2411 7.9497 -15.1245
1 -11.5152 7.72082 -15.2936
1 -7.61774 7.64757 -15.3002
2 -3.75741 7.90306 -15.5435
2 0.1032 7.93306 -15.3363
2 3.85817 7.68645 -15.347
3 7.57289 7.73647 -15.6191
1 11.4736 7.90712 -15.5904
1 15.1316 7.97436 -15.5112
3 -11.2618 11.2955 -15.2128
1 -7.47694 11.792 -15.3879
2 -3.69861 11.5439 -15.481
1 0.0314697 11.6846 -15.5011
1 3.93505 11.5999 -15.3802
2 7.56068 11.5245 -15.4734
2 11.5275 11.5362 -15.4784
1 -8.12504 15.4234 -15.5822
1 -4.19667 15.9496 -16.319
2 0.153558 15.2842 -15.1163
3 4.046 15.6018 -15.4079
2 8.2613 15.7602 -15.836
2 -7.70835 -18.8041 -11.5814
2 -3.78826 -18.936 -11.7028
2 -0.0452718 -19.0184 -11.515
3 3.81496 -18.9012 -11.5453
2 7.66193 -18.8596 -11.4322
3 -11.1739 -15.093 -11.51
1 -7.60693 -15.2295 -11.4041
2 -3.7183 -15.2198 -11.4938
2 0.0259596 -15.2048 -11.5439
3 3.72084 -15.0503 -11.3978
2 7.61616 -15.0207 -11.3105
1 11.4609 -15.2213 -11.5201
2 -15.2534 -11.4608 -11.5404
3 -11.5991 -11.4032 -11.3747
1 -7.64079 -11.4859 -11.4717
3 -3.86128 -11.3907 -11.5757
3 -0.0238683 -11.3325 -11.4681
2 3.69634 -11.3882 -11.5397
3 7.4372 -11.4037 -11.3903
1 11.1928 -11.3749 -11.3475
3 15.2044 -11.4024 -11.39
2 -18.7201 -7.7376 -11.7308
2 -15.4108 -7.48698 -11.6521
1 -11.4925 -7.59243 -11.6651
2 -7.69599 -7.48879 -11.5486
1 -3.9068 -7.59817 -11.4707
3 -0.104438 -7.55402 -11.566
3 3.73005 -7.46258 -11.4424
2 7.55631 -7.62267 -11.3951
3 11.2634 -7.47087 -11.4335
3 15.1511 -7.57014 -11.379
1 18.9415 -7.91075 -11.3458
3 -19.1591 -3.68846 -11.6279
3 -15.1867 -3.69518 -11.5932
2 -11.4392 -3.82945 -11.4893
1 -7.72902 -3.83712 -11.622
1 -4.00226 -3.67999 -11.599
2 -0.257983 -3.58804 -11.5022
2 3.81398 -3.84135 -11.4866
2 7.42284 -3.78332 -11.5009
2 11.3429 -3.70468 -11.3199
2 15.0942 -3.69391 -11.5039
3 18.8486 -3.8195 -11.3722
3 -19.0885 0.04227 -11.5437
2 -15.1069 -0.0114404 -11.4838
2 -11.4109 -0.0091189 -11.5339
2 -7.69931 0.066675 -11.468
2 -4.0857 0.0117732 -11.6123
2 -0.063367 0.315837 -11.5171
2 3.80101 -0.0539844 -11.5776
3 7.50617 0.0765451 -11.5477
1 11.2335 0.0240881 -11.5724
3 14.9934 0.0524095 -11.3518
2 18.9757 0.0353808 -11.6422
2 -18.9565 4.14026 -11.5841
3 -15.1906 3.85351 -11.5947
1 -11.3586 4.01804 -11.591
1 -7.55006 3.86902 -11.5367
2 -3.8861 3.86684 -11.4121
3 0.0337013 3.87885 -11.816
2 3.67778 3.9929 -11.7649
2 7.3484 3.98614 -11.5162
3 11.3066 3.91357 -11.5022
2 15.0267 3.70673 -11.6091
2 18.8014 3.83018 -11.6971
3 -18.7558 7.50092 -11.1979
3 -15.0918 7.76066 -11.3966
2 -11.332 7.5926 -11.3773
3 -7.48255 7.63797 -11.4726
1 -3.82464 7.68304 -11.58
1 0.042679 7.7945 -11.5591
3 3.9287 7.69538 -11.5488
1 7.6724 7.78169 -11.7818
3 11.3347 7.71862 -11.6405
3 15.0867 7.72999 -11.5039
3 18.7815 7.99282 -11.6134
3 -15.2346 11.5144 -11.5535
2 -11.2426 11.3754 -11.5078
1 -7.47197 11.649 -11.6944
3 -3.79137 11.4642 -11.4854
1 -0.012248 11.4662 -11.5421
2 4.05884 11.5225 -11.7136
2 7.68408 11.5593 -11.6186
1 11.6378 11.5775 -11.708
2 15.3316 11.6058 -11.6312
1 -11.4343 15.3224 -11.6825
2 -7.51702 15.3456 -11.5069
3 -3.76547 15.2866 -11.6087
2 0.122439 15.4094 -11.6633
1 3.97251 15.5753 -11.6578
2 7.75779 15.4299 -11.7796
2 11.7292 15.5112 -11.8903
1 -7.68691 18.9405 -11.6665
1 -4.06098 19.0965 -11.7467
1 0.0609524 20.1368 -12.5359
3 4.15049 19.0658 -11.7362
2 8.11964 19.2389 -11.7254
2 0.173129 -22.8043 -7.56208
2 -11.3165 -19.0644 -7.727
1 -7.67966 -19.0705 -7.69881
1 -3.8139 -19.0175 -7.63911
2 -0.0408492 -19.1134 -7.60074
2 3.73632 -18.9114 -7.50439
2 7.08017 -18.9746 -7.56594
1 11.6505 -19.0877 -8.13475
1 -15.4054 -15.4269 -8.29956
2 -11.3953 -15.2528 -7.69504
2 -7.79317 -15.3103 -7.62986
1 -3.7313 -15.0922 -7.67132
1 0.0333568 -15.1846 -7.53197
2 3.64074 -15.2841 -7.59489
2 7.41161 -15.2575 -7.49
3 11.5415 -15.384 -7.52878
3 14.9636 -15.0856 -7.56583
1 -18.8992 -11.4952 -8.18124
3 -15.4517 -11.4406 -7.89083
3 -11.7018 -11.4097 -7.69295
2 -7.72577 -11.514 -7.8418
1 -3.97928 -11.4251 -7.73365
2 -0.154555 -11.4502 -7.615
2 3.58205 -11.266 -7.55161
1 7.5527 -11.4954 -7.38649
2 11.2114 -11.4678 -7.606
2 14.9693 -11.3389 -7.56488
1 18.9089 -11.7397 -7.86583
1 -18.9099 -7.94994 -7.45928
2 -15.1648 -7.70069 -7.80703
2 -11.5033 -7.70347 -7.76947
2 -7.77792 -7.73722 -7.90004
1 -3.9514 -7.66454 -7.58173
3 -0.0854892 -7.55933 -7.53178
2 3.65143 -7.68128 -7.61683
2 7.49008 -7.59082 -7.63781
3 11.4127 -7.5624 -7.51769
2 15.0633 -7.68052 -7.52583
3 18.8826 -7.51955 -7.3343
2 -18.7641 -3.9549 -7.64019
2 -15.2722 -3.89236 -7.74347
3 -11.4831 -3.93035 -7.8302
1 -7.66705 -3.89533 -7.63889
3 -4.02927 -3.86192 -7.7046
2 -0.136677 -3.84254 -7.82425
3 3.70074 -3.77811 -7.69801
2 7.57204 -3.89573 -7.64966
3 11.2906 -3.91276 -7.66318
2 15.0126 -3.73592 -7.62795
3 18.8931 -3.86065 -7.68376
2 -22.9485 -0.267905 -7.60234
1 -18.9801 -0.00541961 -7.69065
3 -15.2242 -0.153835 -7.73602
2 -11.2473 -0.088271 -7.85383
2 -7.66583 -0.0246228 -7.72618
2 -3.88228 -0.0206986 -7.73443
3 -0.102801 0.0503222 -7.85862
3 3.73329 0.0320622 -7.70679
2 7.5514 -0.0359874 -7.59905
1 11.3117 -0.116115 -7.80936
3 15.0807 0.00407958 -7.56919
3 18.8325 0.154407 -7.66607
2 22.5029 -0.0981681 -7.51694
3 -18.8723 3.73798 -7.69646
2 -15.1018 3.68994 -7.63739
3 -11.3376 3.87311 -7.72793
3 -7.76473 3.95129 -7.7055
2 -3.80034 3.97483 -7.67271
1 0.134162 3.89497 -7.75599
2 3.61642 3.92809 -7.7817
3 7.32219 3.74565 -7.55722
2 11.1411 3.69928 -7.66092
1 15.184 3.95462 -7.61542
2 18.7128 3.69113 -7.63156
2 -18.8854 7.83735 -7.70094
1 -15.2498 7.7885 -7.60968
2 -11.2546 7.59766 -7.69504
3 -7.63841 7.43808 -7.65632
2 -3.6896 7.5629 -7.71704
1 -0.0147471 7.64323 -7.74355
3 3.71956 7.65787 -7.7451
2 7.60822 7.88727 -7.68231
3 11.4806 7.69093 -7.66497
2 14.9812 7.54774 -7.67669
1 18.7703 7.68483 -7.54827
3 -18.5705 11.5083 -7.74836
2 -15.1022 11.4807 -7.75576
3 -11.4409 11.3533 -7.64045
3 -7.47851 11.4781 -7.81307
1 -3.78787 11.4866 -7.77341
1 0.0184038 11.6116 -7.75464
1 3.91933 11.5007 -7.78284
3 7.66303 11.5623 -7.86155
3 11.5594 11.479 -7.72709
1 15.2597 11.4951 -7.6557
2 19.0535 11.7885 -7.43017
2 -15.0922 15.1545 -7.79197
2 -11.1306 15.2921 -7.85545
3 -7.63547 15.3539 -7.75984
2 -3.81766 15.3308 -7.89229
3 0.145722 15.403 -7.988
1 3.9119 15.3206 -7.86804
2 7.72041 15.4541 -7.80122
2 11.5836 15.2919 -7.64503
3 14.9571 15.307 -7.53894
1 -11.3902 18.9993 -7.79989
3 -7.47229 19.0026 -7.64163
1 -3.73659 19.1459 -7.7737
3 0.0688388 19.2728 -7.86565
1 4.00992 19.2426 -7.83661
2 7.68963 19.2481 -7.5945
1 11.569 19.1957 -8.14167
2 0.159251 22.5903 -7.63712
2 -3.82163 -22.8401 -3.86514
3 -0.0250303 -22.66 -3.72228
2 3.76051 -22.8125 -3.84695
1 -11.8438 -18.9265 -3.74739
3 -7.54808 -18.8452 -3.97961
1 -3.77772 -19.1963 -3.92194
1 -0.143891 -19.0091 -3.81005
1 3.64992 -19.0684 -3.64069
1 7.51891 -19.0537 -3.727
3 11.4436 -19.0106 -3.61512
1 -15.8214 -15.5816 -4.10369
3 -11.3599 -15.2972 -3.79753
3 -7.50683 -15.0939 -3.84589
3 -3.8195 -15.2458 -3.83508
2 0.0144901 -15.2681 -3.6421
1 3.75355 -15.251 -3.66967
2 7.44058 -15.1959 -3.66166
2 11.3628 -15.2282 -3.61424
3 15.1115 -15.3687 -3.76411
3 -18.9068 -11.5886 -3.63214
2 -15.1579 -11.4266 -3.8378
1 -11.4876 -11.4811 -3.80756
3 -7.62275 -11.4644 -3.83878
1 -3.76036 -11.3747 -3.7585
1 -0.119808 -11.5555 -3.53688
2 3.64719 -11.4212 -3.48356
2 7.54514 -11.4682 -3.60158
2 11.4256 -11.4152 -3.88685
2 15.222 -11.609 -3.85488
1 19.1041 -11.3745 -3.77145
2 -19.0619 -7.77929 -3.87598
1 -15.2114 -7.75391 -4.08254
2 -11.3783 -7.75161 -3.8425
2 -7.63963 -7.66192 -3.8123
2 -3.87499 -7.60155 -3.76983
2 -0.241448 -7.69154 -3.63829
2 3.75317 -7.77698 -3.76031
2 7.54413 -7.62167 -3.71225
1 11.3144 -7.57331 -3.72645
1 15.0419 -7.48192 -3.77036
2 18.8437 -7.51998 -3.92876
1 -21.6547 -4.69882 -4.04129
1 -18.9879 -4.11752 -3.49003
1 -15.0633 -3.9795 -3.88127
1 -11.4008 -3.904 -3.78863
1 -7.61793 -3.70112 -3.65919
2 -3.61748 -3.6486 -3.96443
1 -0.187323 -3.72901 -3.87446
1 3.43532 -3.85068 -3.90683
1 7.5552 -3.88543 -3.75111
3 11.2245 -3.82288 -3.7163
3 15.0582 -3.85589 -3.66908
1 18.9019 -3.64658 -3.74531
3 22.6555 -3.86265 -3.88364
2 -22.6659 0.0371666 -3.93384
3 -18.9263 -0.177231 -3.88199
3 -15.0694 -0.224628 -3.84305
2 -11.5181 -0.100272 -3.88512
3 -7.58272 -0.155506 -3.79431
2 -3.8336 -0.108664 -3.87784
2 -0.143988 0.160734 -3.82266
3 3.63595 -0.10095 -3.76544
2 7.46878 -0.0539838 -3.95005
2 11.3586 -0.0670423 -4.01473
2 15.1561 -0.0240526 -3.84884
2 18.6942 0.0429425 -3.78425
3 22.6325 -0.0511134 -3.74003
3 -22.6495 3.90605 -3.85842
1 -18.8242 3.58863 -3.87229
3 -14.912 3.80746 -3.84996
2 -11.2303 3.67568 -3.83999
2 -7.63329 3.76861 -3.8574
1 -3.76014 3.84405 -4.03401
2 0.112651 3.92592 -3.93041
2 3.74248 3.78402 -3.78548
2 7.50551 3.79876 -3.89133
3 11.1342 3.80988 -3.8622
2 15.1352 3.91257 -3.82319
2 18.814 3.92688 -3.98927
1 22.3979 3.82859 -3.98335
2 -18.7863 7.51522 -3.81963
2 -15.0983 7.63763 -3.88017
2 -11.2553 7.59451 -3.84685
2 -7.62405 7.64816 -4.07152
2 -3.7595 7.57871 -4.00889
2 0.0662883 7.6034 -3.83636
1 3.79603 7.56037 -3.94469
2 7.46159 7.72837 -3.92272
3 11.245 7.67978 -3.83874
2 15.0783 7.8081 -3.75784
2 18.8683 7.84682 -3.82341
2 -18.7178 11.6118 -3.98876
1 -15.1392 11.4063 -3.92377
3 -11.3243 11.4074 -3.93096
1 -7.51114 11.5282 -4.12758
3 -3.80424 11.3687 -3.99884
1 0.225484 11.5635 -3.91642
1 3.8222 11.4984 -4.03587
1 7.70813 11.6125 -3.91932
3 11.5223 11.5343 -3.93213
2 15.1647 11.6071 -3.78225
2 19.4221 12.0135 -4.57142
2 -15.2044 15.2642 -4.07044
3 -11.456 15.2127 -3.96273
3 -7.57522 15.1341 -4.06554
3 -3.67894 15.2192 -4.05824
1 0.201808 15.2751 -4.09969
2 4.00367 15.3435 -4.1275
2 7.88114 15.3603 -3.94522
2 11.4109 15.4677 -3.82339
2 15.3015 15.4044 -3.76364
1 -11.3421 19.065 -4.11245
2 -7.49474 19.0095 -3.82941
3 -3.76906 19.0232 -3.93459
2 0.0913308 19.03 -4.09523
3 3.84848 19.1583 -4.1141
3 7.82988 19.1018 -3.93777
2 12.0134 20.0539 -4.34126
3 -3.63405 22.8482 -3.94436
2 0.118597 22.6326 -3.78697
2 3.9533 22.7924 -3.84609
2 -6.05325 -23.2565 0.457183
1 -3.70539 -22.89 0.0186322
3 0.103498 -22.8838 -0.0188597
1 3.87461 -22.8937 -0.0318975
2 7.50666 -22.6938 -0.193216
3 -11.3042 -18.9665 0.078258
1 -7.82264 -18.9691 0.0280068
1 -4.01446 -18.8508 0.14024
3 -0.150549 -19.0107 0.177309
3 3.81596 -19.121 0.110387
2 7.53602 -19.1273 0.10845
2 11.3858 -19.1145 0.154771
2 -14.9263 -15.1607 0.0727041
2 -11.4991 -15.1099 0.0700774
3 -7.60816 -15.1417 0.122532
2 -3.81192 -15.2549 0.0663365
3 -0.0458755 -15.3182 0.238703
1 3.68994 -15.1875 0.0873392
3 7.47908 -15.2148 0.0564603
1 11.374 -15.3065 -0.0320692
2 15.3448 -15.2091 0.23382
2 -19.2799 -11.508 0.150846
2 -15.0868 -11.4406 0.187063
3 -11.1823 -11.5635 0.214028
3 -7.5618 -11.5384 0.0866735
1 -3.79632 -11.536 0.263721
3 0.106775 -11.5662 0.180948
2 3.81338 -11.5683 -0.01862
3 7.42053 -11.3594 0.0655344
1 11.4214 -11.4612 -0.0663525
1 15.2431 -11.5295 0.108679
2 19.2083 -11.7733 0.175543
2 -22.5139 -7.55271 -0.0590345
3 -18.8399 -7.84448 0.0839143
3 -15.0536 -7.70322 -0.0630955
3 -11.2086 -7.78929 0.0738718
2 -7.38759 -7.78159 0.18002
2 -3.74672 -7.7498 0.268735
1 -0.187465 -7.70936 0.183215
3 3.60946 -7.65199 0.174625
2 7.5638 -7.64061 0.227571
3 11.3753 -7.66496 0.0493132
1 15.0599 -7.47892 0.146596
2 18.7748 -7.55693 0.124345
2 22.4843 -7.49615 0.35614
3 -22.3964 -4.28908 0.331889
2 -18.7366 -4.09399 -0.00342874
2 -15.1019 -4.00606 0.102612
2 -11.1683 -4.08495 0.1003
2 -7.60096 -3.93722 0.0375555
3 -3.73255 -4.02465 0.0754643
2 0.0258618 -3.87005 0.332142
2 3.76573 -3.76563 0.246274
1 7.46433 -3.82031 -0.0249845
1 11.27 -3.91148 0.0142201
3 14.9639 -3.69956 -0.0463285
3 18.7553 -3.7669 0.126828
2 23.0195 -3.78836 0.0247542
1 -22.6738 -0.175079 0.079488
2 -18.7743 -0.231773 -0.0179123
2 -15.0185 -0.289979 0.0667436
1 -11.4253 -0.185215 0.122182
3 -7.61781 -0.00435225 0.0239838
2 -3.83147 -0.265894 0.141379
2 -0.0281948 -0.165061 0.138757
1 3.69433 -0.159315 -0.060831
3 7.56665 -0.0504849 0.0260063
3 11.3972 0.0509198 0.00116174
3 15.0793 -0.0926954 0.0900479
3 18.8388 0.178785 -0.0213676
3 22.7291 -0.00753261 0.0850854
1 -22.8478 3.54066 0.023031
2 -18.7339 3.78594 -0.201321
1 -15.0764 3.67164 -0.0185965
3 -11.2789 3.61423 -0.120448
2 -7.51609 3.74064 -0.0842314
2 -3.62299 3.73788 -0.138191
1 -0.00758678 3.80684 -0.0644946
1 3.68778 3.78253 -0.0161313
2 7.73511 3.81145 -0.198267
1 11.4274 3.85663 -0.106115
3 15.1184 3.85117 -0.0653572
2 18.8387 3.95163 0.0144493
2 22.583 3.84865 -0.125351
3 -22.2723 7.56755 0.0710594
3 -18.6064 7.42786 -0.159772
1 -15.0299 7.56107 -0.19828
2 -11.3456 7.63656 -0.176894
2 -7.47103 7.72759 -0.229401
2 -3.43407 7.61769 -0.081412
1 0.0844337 7.46756 -0.00272586
3 3.7862 7.68624 -0.0635495
3 7.64222 7.66036 0.0630233
3 11.4042 7.65781 -0.0214517
2 15.054 7.68559 -0.0308989
2 18.7525 7.81032 -0.0424841
1 22.7791 7.61961 0.225548
1 -18.8163 11.5426 -0.0717005
1 -15.064 11.3148 -0.0657244
3 -11.1505 11.5562 -0.0108628
3 -7.36688 11.6039 -0.293302
2 -3.6161 11.4342 -0.141765
3 0.198669 11.4873 -0.144145
2 3.99311 11.6192 -0.112136
2 7.74834 11.439 -0.173617
2 11.3793 11.484 -0.0876183
2 15.0076 11.6397 -0.0722003
3 19.0374 11.4554 0.0447087
3 -15.0067 15.0714 -0.0476562
3 -11.165 15.2178 -0.339049
2 -7.48237 15.2126 -0.271205
2 -3.69519 15.1967 -0.178701
1 0.053137 15.3061 -0.287478
2 3.84271 15.4371 -0.279777
1 7.72203 15.3642 -0.121677
3 11.5627 15.3915 0.0893451
3 15.1926 15.4956 0.057144
2 -11.0834 19.0273 -0.206393
3 -7.65444 18.9954 -0.172118
2 -3.75347 19.0505 -0.0516065
1 0.104669 19.0355 -0.128127
1 4.01929 19.0911 0.0283603
3 7.54874 18.8855 0.11662
3 11.4378 19.1902 0.234142
3 -7.37804 22.6918 -0.135794
3 -3.59962 22.6226 -0.0359964
1 0.0128378 22.7866 -0.119257
2 1.84226 24.4391 0.127167
3 7.61029 22.7403 0.0372086
2 -3.79429 -23.8365 4.73285
1 -0.123243 -22.9068 3.86553
2 3.68149 -22.7993 3.91332
2 -11.6156 -19.0955 4.29822
3 -7.62325 -19.0723 3.98878
1 -3.83118 -19.014 3.85847
1 -0.113878 -19.2024 3.97772
2 3.76901 -19.1311 4.11757
2 7.69833 -19.1649 3.78095
2 11.2616 -19.0406 4.00392
2 -15.1747 -15.358 3.86374
2 -11.3946 -15.205 3.78199
2 -7.70832 -15.2651 3.95724
3 -3.93202 -15.3506 3.98431
2 -0.175038 -15.3513 4.00977
3 3.72817 -15.2214 3.85679
1 7.44089 -15.2687 3.91007
3 11.2532 -15.2807 3.82941
2 15.164 -15.3212 4.07572
2 -19.0571 -11.561 3.86586
3 -15.1547 -11.5529 3.88555
1 -11.3718 -11.626 3.97162
3 -7.50411 -11.7074 3.94061
2 -3.69131 -11.5944 3.99711
2 -0.0498776 -11.5607 4.02924
1 3.72059 -11.3559 3.92805
2 7.64199 -11.4152 3.96691
2 11.4341 -11.5772 4.01861
2 15.1258 -11.5302 4.07286
3 18.8478 -11.5982 4.00903
2 -18.8167 -7.77641 3.87655
3 -15.0293 -7.7951 3.74204
3 -11.2455 -7.71585 3.86929
3 -7.41131 -7.78828 3.95381
3 -3.78243 -7.8173 3.96492
2 -0.107359 -7.60475 4.01569
3 3.57707 -7.74463 3.8745
2 7.4508 -7.47654 4.01952
2 11.2354 -7.50306 3.96065
2 15.1614 -7.48756 3.89762
1 18.8441 -7.72404 3.82513
3 -22.3593 -3.89608 3.92198
2 -18.7916 -3.87665 4.08682
2 -14.8719 -3.99715 3.90488
2 -11.2412 -4.07444 3.80357
2 -7.53501 -4.00007 3.81516
3 -3.88172 -3.92614 4.06469
3 -0.0158877 -3.87815 3.93694
3 3.74281 -3.7345 3.95271
2 7.47502 -3.71467 3.95265
3 11.329 -3.88793 4.00923
2 15.1617 -3.91523 3.83297
3 18.8287 -3.79171 3.87022
2 23.0196 -3.9673 3.63975
2 -22.5259 -0.243734 3.75348
1 -18.922 -0.155188 3.84051
2 -14.995 -0.232039 3.96286
1 -11.2456 -0.125362 3.80616
2 -7.45031 -0.204372 3.94012
1 -3.69703 -0.0724765 3.94702
2 -0.0451102 -0.0243543 3.96551
2 3.72881 0.0190921 3.88233
2 7.50097 0.13892 3.8798
1 11.3605 -0.00317554 3.89753
1 15.0871 -0.0128524 3.78041
3 18.8602 0.114068 3.73277
1 22.7863 -0.0781843 3.87418
2 -22.5258 3.81689 3.67335
2 -18.7992 3.62096 3.62633
2 -15.1188 3.50944 3.62555
2 -11.1761 3.62047 3.77205
2 -7.42366 3.74506 3.94375
2 -3.86738 3.83869 3.85642
2 -0.119289 3.67892 3.80936
2 3.72597 3.66611 3.79917
1 7.48023 3.70772 3.9382
1 11.3387 3.82303 3.84558
2 15.2183 3.92583 3.70984
2 18.8628 4.03132 3.64829
2 22.6134 3.79436 3.80128
2 -18.8022 7.43103 3.63957
1 -15.1762 7.49993 3.68851
2 -11.2227 7.50612 3.58643
2 -7.59274 7.45301 3.64366
2 -3.74131 7.6803 3.74479
2 0.00959939 7.62603 3.90078
2 3.77414 7.58074 3.72706
3 7.61324 7.70843 3.87503
3 11.2999 7.61207 3.79337
3 15.156 7.7305 3.84841
3 18.8679 7.75692 3.80186
2 -18.9207 11.6776 4.08295
2 -14.8658 11.4455 3.67234
1 -11.1729 11.3884 3.60918
1 -7.35686 11.4115 3.73889
1 -3.60602 11.5543 3.70476
3 0.1068 11.4832 3.81185
2 3.90691 11.4841 3.82752
1 7.55191 11.4376 3.89418
2 11.4456 11.4937 3.85819
3 14.9826 11.4282 3.90929
3 18.9092 11.6328 3.90593
3 -15.0387 15.1729 3.89465
3 -11.1513 15.0388 3.70778
2 -7.32365 15.3308 3.73366
3 -3.62999 15.2399 3.51149
3 0.162167 15.2131 3.73255
3 3.76313 15.2542 3.75882
2 7.65805 15.3441 3.79471
1 11.298 15.2582 3.99365
1 15.3513 15.5906 4.03916
2 -11.7193 19.1986 3.77524
1 -7.47944 18.9612 3.71347
2 -3.72615 18.8763 3.64137
1 -0.0637484 18.9698 3.84347
2 3.87136 18.8331 3.92659
2 7.60796 19.1742 4.01635
2 11.4086 19.3864 4.16032
3 -3.69506 22.7324 3.88226
1 -0.0403409 22.6997 3.8254
2 3.93728 22.7684 4.16606
3 -0.228676 -22.8884 7.89319
1 -11.5863 -18.7982 7.87141
1 -7.47768 -19.1813 7.59562
2 -3.85242 -19.1663 7.73877
2 -0.037396 -19.1809 7.77931
2 3.76849 -19.0973 7.81318
3 7.48797 -19.031 7.68588
1 11.4438 -19.0179 8.14621
3 -15.2197 -15.031 7.93674
1 -11.5946 -15.4244 7.8608
2 -7.57059 -15.257 7.68428
3 -3.93134 -15.4295 7.74929
3 -0.0243806 -15.2542 7.8213
1 3.76734 -15.2448 7.75484
3 7.51936 -15.3028 7.83576
1 11.4777 -15.1658 7.5989
3 14.7422 -15.1743 7.66767
2 -18.7601 -11.3988 7.68787
2 -15.2935 -11.4981 7.4588
2 -11.583 -11.4993 7.7758
2 -7.61275 -11.6155 7.66273
2 -3.86978 -11.6494 7.8592
1 -0.0981215 -11.5177 7.81924
3 3.78936 -11.3793 7.86982
3 7.37735 -11.4332 7.7377
2 11.5353 -11.4667 7.89599
2 15.1125 -11.3814 7.69802
1 18.9765 -11.5322 7.68021
2 -18.8288 -7.54934 7.88672
2 -15.2146 -7.67931 7.64187
1 -11.257 -7.8553 7.76772
2 -7.44084 -7.76288 7.73356
1 -3.62228 -7.77581 7.95425
2 -0.0587063 -7.82953 7.85548
2 3.74288 -7.60353 7.76686
3 7.43496 -7.61264 7.66564
1 11.3118 -7.56081 7.6912
3 15.1164 -7.61219 7.7456
3 18.8113 -7.93267 7.44243
1 -18.7867 -3.96978 7.76474
1 -14.9787 -3.9391 7.59489
3 -11.1528 -3.98452 7.66132
2 -7.47714 -4.12482 7.80573
2 -3.7968 -3.95023 7.92503
3 -0.0593021 -3.81629 7.93764
2 3.69917 -3.76431 7.77974
1 7.51721 -3.6146 7.70597
1 11.2893 -3.7022 7.60686
1 15.1749 -3.62215 7.62063
2 18.9744 -3.74302 7.42954
3 -22.466 -0.0797534 7.37079
1 -18.6334 -0.130264 7.50317
2 -15.0944 -0.0143552 7.60196
1 -11.2611 -0.213292 7.84196
2 -7.692 -0.264234 7.6929
3 -3.84156 -0.152536 7.71034
1 0.0955659 -0.0791329 7.7704
2 3.67341 -0.0248033 7.64194
3 7.58317 0.0717182 7.77732
3 11.2912 -0.034871 7.68846
3 15.2172 0.0812815 7.62044
2 18.8831 0.160648 7.52608
2 22.4927 0.1035 7.47473
1 -18.7102 3.70615 7.55635
2 -14.8579 3.61797 7.55046
2 -11.0974 3.71692 7.65208
1 -7.4872 3.82273 7.75206
3 -3.64538 3.77142 7.72147
2 -0.0932271 3.73514 7.75901
1 3.5779 3.86907 7.52078
2 7.77548 3.92873 7.64662
3 11.5471 3.85498 7.61037
2 15.1181 3.85112 7.75111
2 18.8239 4.04471 7.78524
3 -18.7474 7.56983 7.42697
2 -14.8828 7.53829 7.5681
2 -11.1854 7.4699 7.48991
2 -7.32392 7.54334 7.86489
3 -3.71555 7.64665 7.66152
1 0.033327 7.64693 7.74168
1 3.80164 7.50926 7.60332
1 7.65318 7.55433 7.66278
2 11.4285 7.79744 7.71604
2 15.0844 7.64031 7.71252
1 18.9274 7.89184 7.77728
3 -18.4366 11.2839 7.53512
1 -15.0308 11.472 7.48886
3 -11.157 11.1784 7.44206
2 -7.42598 11.4716 7.55528
2 -3.69585 11.4325 7.52661
2 0.17797 11.3246 7.57654
2 3.80891 11.3106 7.57536
2 7.61033 11.3672 7.62525
1 11.3912 11.5243 7.66235
2 15.1833 11.5708 7.62089
1 18.8731 11.7661 7.59776
2 -15.0022 15.132 7.74428
1 -11.1799 15.1271 7.46615
3 -7.46452 15.1532 7.56774
3 -3.6158 15.0945 7.58742
3 0.0216536 15.3175 7.68007
3 3.78449 15.0868 7.71139
3 7.58586 15.3967 7.87317
2 11.4073 15.3217 7.77149
3 15.0238 15.2246 7.59363
3 -11.0914 18.6882 7.50008
2 -7.44294 18.9006 7.30804
3 -3.78223 18.9956 7.55383
2 0.167203 18.9069 7.57931
2 3.76329 19.2147 7.68564
2 7.36008 19.0538 7.74489
2 11.2238 19.0915 7.89907
2 0.054784 22.6678 7.71718
3 -7.70187 -19.0892 11.4565
1 -4.04598 -19.5898 11.6723
2 0.0526127 -19.4743 11.5867
3 3.73509 -19.1484 11.5161
3 7.57981 -19.0382 11.6741
1 -11.7003 -15.3405 12.0097
2 -7.49833 -15.508 11.6233
2 -3.89638 -15.4912 11.6975
1 -0.254233 -15.4805 11.4008
3 3.65207 -15.2449 11.5178
3 7.64986 -15.2084 11.62
1 11.4311 -15.4752 11.9395
2 -15.3616 -11.6412 11.6358
3 -11.6818 -11.7538 11.6177
2 -7.63723 -11.8033 11.663
2 -3.80153 -11.4887 11.7274
1 -0.130385 -11.4697 11.7299
3 3.87262 -11.4982 11.6656
2 7.45658 -11.4061 11.6154
3 11.4795 -11.4937 11.5782
1 15.3975 -11.8828 11.7008
3 -18.8768 -7.78666 11.3766
3 -15.0257 -7.81803 11.4177
2 -11.3909 -7.86234 11.5367
3 -7.6648 -7.77434 11.5369
3 -3.79908 -7.86009 11.6112
2 0.0346806 -7.78981 11.7262
1 3.67043 -7.57641 11.6895
1 7.4642 -7.5703 11.6054
2 11.3139 -7.49663 11.5451
1 15.2977 -7.61385 11.5276
1 18.8101 -7.76904 11.4455
2 -20.2383 -5.31664 11.6995
2 -15.14 -3.93431 11.3999
2 -11.437 -3.86766 11.5175
2 -7.46032 -4.10263 11.792
2 -3.73699 -3.93707 11.6076
1 -0.0421156 -4.0185 11.7256
3 3.7125 -3.94095 11.7126
2 7.54038 -3.62164 11.6546
2 11.2019 -3.68182 11.4706
2 15.2101 -3.58792 11.5203
2 19.1158 -3.80968 11.5508
3 -18.8479 -0.156367 11.1938
2 -15.1637 -0.0291461 11.5072
3 -11.2222 -0.187795 11.5306
1 -7.6494 -0.138772 11.7581
2 -3.66107 -0.111044 11.814
3 -0.0282499 -0.0347839 11.7126
1 3.91097 -0.0124283 11.706
1 7.43483 -0.0682092 11.5839
2 11.3135 -0.0519949 11.3978
2 15.2259 0.0112699 11.4412
1 19.0213 0.0832616 11.5043
2 -18.8016 3.82639 11.3536
1 -14.9468 3.67941 11.3672
1 -11.2874 3.73909 11.453
1 -7.51718 3.6837 11.5699
3 -3.91381 3.52679 11.626
3 0.014904 3.74461 11.5077
1 3.75422 3.65741 11.728
3 7.68662 3.89249 11.5398
2 11.1828 3.59917 11.5153
3 15.1293 3.98927 11.6455
3 18.9198 3.82327 11.4902
2 -18.7118 7.48799 11.1586
1 -14.8784 7.52835 11.389
2 -11.3175 7.43779 11.4891
1 -7.40612 7.4679 11.5691
2 -3.92675 7.34956 11.7053
1 0.0429322 7.40026 11.506
3 3.94902 7.50489 11.5028
2 7.69167 7.46834 11.5359
1 11.3057 7.65936 11.4262
1 15.2383 7.77503 11.5575
1 18.9065 7.89063 11.5469
2 -14.9245 11.3413 11.2172
3 -11.195 11.2503 11.4197
1 -7.47364 11.3208 11.383
3 -3.68471 11.4745 11.4091
2 0.00462114 11.4399 11.5854
1 3.75879 11.2967 11.4078
2 7.51437 11.4526 11.3712
2 11.447 11.4598 11.472
2 15.3109 11.5369 11.6315
3 -11.2715 15.0983 11.2663
2 -7.60243 15.4964 11.3717
2 -3.67318 14.9113 11.3921
2 0.186253 15.1434 11.4744
2 3.7961 15.1991 11.6402
1 7.63294 15.0942 11.4521
2 11.3614 15.199 11.4494
1 -7.60081 18.7334 11.3883
1 -4.01377 19.2797 11.5504
2 -0.130317 19.029 11.5357
2 3.71951 19.017 11.7545
3 7.70918 18.7125 11.7179
3 -7.8273 -15.4956 15.2848
2 -4.03351 -15.6865 15.6336
2 -0.0311738 -15.4834 15.4506
1 3.62291 -16.5455 16.999
2 7.75549 -15.4832 15.8597
3 -11.2164 -11.6096 15.4149
2 -7.71393 -11.6742 15.4494
2 -3.92733 -11.6728 15.7064
3 -0.24181 -11.6693 15.6564
2 3.68095 -11.875 15.8298
3 7.61293 -11.3931 15.56
2 11.3222 -11.3248 15.4235
3 -15.085 -7.81804 15.371
2 -11.5694 -8.02951 15.6103
3 -7.70923 -7.91725 15.4699
1 -3.87343 -7.91758 15.5709
2 0.0181031 -7.89594 15.5666
2 3.7971 -7.95574 15.6853
3 7.596 -7.61238 15.4532
2 11.306 -7.54751 15.2845
3 15.0349 -7.58786 15.145
2 -15.0828 -3.95957 15.4559
2 -11.312 -4.05096 15.4479
1 -7.7016 -4.12297 15.4859
2 -3.87613 -3.91031 15.4634
1 -0.0332501 -3.96687 15.4996
1 3.88335 -4.00378 15.5573
1 7.62181 -3.74018 15.4681
2 11.433 -3.7732 15.4078
3 15.183 -3.75687 15.3581
3 -15.0668 -0.14332 15.3434
1 -11.3806 -0.128588 15.6069
3 -7.41594 -0.166686 15.4444
2 -3.63124 -0.0634538 15.4947
1 -0.0155843 -0.0398358 15.3828
3 3.76041 -0.0734452 15.4482
1 7.60846 0.0306859 15.4105
1 11.2715 0.0353915 15.525
1 15.0773 -0.0898837 15.2535
3 -14.9497 3.87728 15.0763
1 -11.284 3.73413 15.412
3 -7.54203 3.61489 15.4151
3 -3.8199 3.60566 15.4577
2 0.0745564 3.68892 15.3106
2 3.82038 3.68136 15.349
3 7.48496 3.71886 15.366
3 11.3106 3.71287 15.4582
2 15.5134 3.67608 15.5523
2 -15.211 7.88305 15.2778
2 -11.2343 7.48936 15.287
2 -7.4793 7.37381 15.2961
2 -3.70301 7.41564 15.18
2 0.102269 7.56544 15.3911
2 3.84215 7.62668 15.271
1 7.62356 7.62968 15.3455
1 11.484 7.52199 15.4231
3 15.0865 7.69801 15.3067
1 -12.1896 12.2029 15.3082
1 -7.54805 11.2768 15.2149
2 -3.76536 11.2667 15.3762
2 -0.0449492 11.3379 15.3984
2 3.80316 11.258 15.4244
2 7.61084 11.4991 15.3863
2 11.5257 11.4609 15.3833
2 -7.96123 15.0963 14.9018
2 -4.20948 16.4855 16.682
2 -0.120632 15.177 15.2555
2 3.65426 15.538 15.3109
1 7.91838 15.2946 15.6119
1 -7.72579 -11.7831 19.2884
2 -4.11609 -12.0878 19.434
3 -0.143206 -11.6963 19.4963
1 3.87144 -12.202 19.7428
3 7.76125 -11.7273 19.3857
1 -11.4326 -7.75318 19.2815
3 -7.57917 -7.90974 19.465
2 -3.91588 -7.87202 19.4627
2 0.122927 -7.78799 19.3525
2 3.47799 -8.0566 19.6247
3 7.67923 -7.44498 19.1836
1 11.647 -7.72164 19.3109
2 -11.6958 -4.19135 19.4304
1 -7.53222 -4.02765 19.4013
1 -3.74943 -3.96911 19.5536
2 0.141392 -4.07706 19.2695
2 3.87944 -3.71897 19.182
1 7.72459 -3.74213 19.2048
1 11.5253 -3.8739 19.2182
2 -11.4846 -0.0334218 19.2551
2 -7.65526 -0.171758 19.244
1 -3.95049 -0.213984 19.3119
1 -0.120735 -0.0147129 19.2878
2 3.94422 0.070253 19.3015
3 7.78609 0.0786007 19.2558
2 11.3141 0.0436983 19.2345
2 -11.6813 3.89105 19.2197
1 -7.76209 3.81826 19.2419
2 -3.80463 3.52426 19.1782
2 0.0253456 3.58195 19.1252
2 3.84592 3.69334 19.1616
3 7.58928 3.72781 19.2918
3 11.2065 3.72633 19.2431
2 -11.2791 7.62703 18.8529
2 -7.58993 7.52618 18.8827
2 -3.60699 7.43025 18.9871
2 -0.141709 7.40942 19.0282
2 3.89354 7.5 19.0939
1 7.69543 7.73748 19.0871
3 11.2943 7.56645 19.018
1 -7.97692 11.5557 18.6826
1 -3.86744 11.2321 19.0593
3 -0.0315312 11.4031 19.0801
1 3.66334 11.3227 19.3582
3 7.62411 11.5014 19.0056
2 0.0416348 -7.50723 23.2895
1 -3.86693 -3.67187 23.1057
1 -0.0942834 -3.96913 22.977
2 3.81197 -3.97845 22.9756
1 -7.65363 0.0161499 22.9329
2 -3.80457 -0.0813705 22.9369
1 0.140233 0.0229502 22.9853
2 3.87507 0.0769891 22.8787
3 7.37929 0.186778 22.7756
1 -3.97045 3.88313 22.8025
3 0.109426 3.75535 22.6739
3 3.91122 3.74466 22.807
3 0.107407 7.43259 22.7832
2 -5.82062 -5.73409 -22.861
2 -1.88292 -5.42762 -22.7533
1 1.80295 -5.77468 -22.8357
2 5.74438 -5.87637 -23.0353
1 -5.65244 -1.82721 -23.0418
2 -1.70549 -1.8498 -23.0981
2 1.75814 -1.90046 -22.9724
2 5.5736 -1.78627 -22.9516
1 -5.67271 2.18108 -22.9066
2 -2.1063 1.89118 -23.1435
2 1.70597 2.16945 -22.995
2 5.51381 1.88729 -23.0314
2 -5.86884 5.86714 -22.96
3 -2.02533 5.85917 -22.9528
2 1.90305 5.96845 -22.8131
2 5.76608 5.92476 -22.8065
1 -5.84143 -13.3945 -19.023
2 -1.84269 -13.2999 -19.0425
1 2.22747 -13.03 -18.9523
2 6.29342 -13.554 -19.1641
3 -9.51786 -9.39111 -19.0622
2 -6.15444 -11.9107 -20.8598
1 -2.09461 -9.44925 -19.2627
2 1.58668 -9.62595 -19.1524
3 5.54108 -9.46379 -19.0919
2 9.54423 -9.47007 -19.1473
1 -13.2527 -5.94 -19.3763
1 -9.94705 -5.61425 -19.4806
3 -5.87614 -5.56378 -19.207
2 -1.93648 -5.5887 -19.0818
3 1.83711 -5.60458 -19.245
2 5.80278 -5.73869 -19.2415
1 9.66512 -5.30914 -19.2801
3 13.2072 -5.77101 -18.951