4321
 Atoms. Timestep: 4193
3 -0.0721764 -7.4198 -22.9612
2 -3.96698 -3.75652 -22.9456
1 -0.151064 -3.68814 -22.9971
2 3.67419 -3.68048 -23.2123
1 -7.48164 0.0574858 -22.6045
1 -4.02368 0.203023 -22.6092
1 -0.116738 0.251668 -23.007
2 3.64016 0.231799 -22.9368
2 7.66505 0.224602 -23.0994
3 -3.99446 4.05473 -22.8792
2 -0.109791 3.85055 -23.0472
2 3.83511 4.12616 -23.2715
3 0.0678297 7.66061 -22.8946
1 -7.75189 -11.4107 -19.205
2 -4.39906 -11.7324 -19.3759
1 -0.0312355 -11.8011 -19.8419
2 3.99377 -11.6693 -19.4656
2 7.56432 -11.1919 -19.0227
3 -11.4236 -7.64782 -19.1207
1 -7.57384 -7.62651 -19.2837
1 -3.91116 -7.47068 -19.3738
2 -0.00179601 -7.25535 -19.1641
2 3.72188 -7.57104 -19.1995
2 7.49509 -7.49171 -19.2101
1 11.2509 -7.53589 -19.1845
1 -11.7215 -3.85348 -19.2643
2 -7.64656 -3.77368 -19.2012
1 -3.90336 -3.92984 -19.1612
1 -0.156218 -3.7386 -19.2796
2 3.82328 -3.66269 -19.3496
2 7.60166 -3.51414 -19.3534
3 11.8096 -3.70752 -19.0702
1 -11.3475 0.314921 -19.1426
2 -7.96583 0.160877 -19.3158
2 -3.80031 0.149846 -18.9771
1 -0.0862881 0.0647412 -19.2929
2 3.7249 0.022096 -19.3392
2 7.627 0.152703 -19.4479
1 11.5735 0.144324 -19.5423
2 -11.4243 4.06883 -19.19
1 -7.64336 4.12598 -19.2371
2 -3.9985 3.93443 -19.0058
1 0.196031 3.98756 -19.2778
1 3.73418 3.99901 -19.4194
2 7.75658 3.82973 -19.5261
2 11.4716 4.00373 -19.1098
3 -11.2607 7.95864 -18.9402
1 -7.83216 7.97504 -19.2038
1 -3.72491 7.69908 -19.1494
2 -0.0946615 7.72902 -19.2431
2 3.78981 7.96706 -19.3065
3 7.5034 7.79399 -19.3167
2 11.5409 8.01401 -19.5043
1 -8.02759 11.8461 -19.3771
3 -3.77328 11.6164 -19.242
3 0.0663137 11.8797 -19.1974
1 4.32879 12.1624 -19.6295
3 7.89735 11.5875 -19.0756
1 -7.53798 -15.0598 -15.3742
3 -3.87697 -15.1913 -15.4032
3 -0.151552 -15.2235 -15.2311
2 3.75758 -15.1878 -15.4169
3 7.54644 -15.094 -15.2919
1 -11.311 -11.4064 -15.4492
3 -7.5881 -11.4374 -15.2896
1 -3.79517 -11.4679 -15.3925
2 0.0491852 -11.4279 -15.334
1 3.47319 -11.3232 -15.5998
1 7.62999 -11.4596 -15.4877
1 11.3353 -11.5722 -15.4478
2 -15.2834 -7.97543 -15.8517
2 -11.527 -7.54206 -15.4618
2 -7.59733 -7.59802 -15.3804
2 -3.86971 -7.51863 -15.4259
1 -0.0319474 -7.46371 -15.4361
2 3.67035 -7.47333 -15.3162
2 7.57097 -7.68076 -15.3464
2 11.2523 -7.72966 -15.3178
2 15.0356 -7.69138 -15.1834
2 -15.1372 -3.73585 -15.6181
2 -11.4745 -3.96434 -15.4816
2 -7.6354 -3.70241 -15.568
2 -3.97137 -3.72475 -15.4745
2 0.00782622 -3.71127 -15.2623
3 3.74113 -3.80019 -15.3832
3 7.53154 -3.76051 -15.4512
2 11.2077 -3.83043 -15.293
3 14.9779 -3.68946 -15.348
1 -15.1611 0.113438 -15.2333
2 -11.4381 0.117479 -15.3346
1 -7.78317 0.00990727 -15.4428
3 -3.8761 -0.00459091 -15.4964
1 -0.0499499 0.0679217 -15.314
2 3.76549 0.184951 -15.3837
2 7.49845 0.241469 -15.6507
2 11.3082 -0.0336304 -15.3488
2 14.915 0.069601 -15.5115
1 -15.4814 3.96347 -15.4273
1 -11.5437 3.95039 -15.3988
1 -7.66479 3.90276 -15.4581
1 -3.95761 3.91999 -15.4257
2 -0.198372 3.77621 -15.4693
1 3.78736 3.97571 -15.5218
1 7.62637 3.86951 -15.5973
2 11.2648 3.92486 -15.454
1 15.1701 4.06188 -15.5377
2 -14.9827 7.95253 -15.1429
1 -11.4726 7.6822 -15.235
1 -7.65266 7.76564 -15.3312
2 -3.92003 7.96362 -15.6214
2 -0.0567429 7.70663 -15.4872
2 3.89085 7.72089 -15.493
3 7.50338 7.78177 -15.5655
1 11.3937 7.81289 -15.3333
1 15.3645 8.01548 -15.6633
3 -11.3351 11.5068 -15.0875
1 -7.50769 11.7276 -15.5259
2 -3.82975 11.5724 -15.422
1 -0.0482479 11.5633 -15.4409
1 4.10871 11.5959 -15.5085
2 7.72166 11.7609 -15.56
2 11.488 11.6158 -15.3984
1 -8.05831 15.4214 -15.5947
1 -3.99279 15.6765 -15.847
2 0.0870959 15.1214 -15.2069
3 3.97552 15.5222 -15.4833
2 7.66525 15.6323 -15.6321
2 -7.58102 -19.1035 -11.6597
2 -3.58154 -18.7935 -11.5989
2 -0.142787 -18.915 -11.5641
3 3.72195 -19.0212 -11.6341
2 7.81671 -18.8944 -11.5002
3 -11.4142 -15.4828 -11.7155
1 -7.7327 -15.4378 -11.5339
2 -3.69223 -15.0892 -11.2608
2 -0.0310971 -15.2514 -11.419
3 3.73544 -15.2611 -11.4915
2 7.44745 -15.1939 -11.5006
1 11.4972 -15.3033 -11.6772
2 -15.1762 -11.5703 -11.6598
3 -11.5527 -11.5141 -11.4717
1 -7.67713 -11.5392 -11.5304
3 -3.81994 -11.4352 -11.609
3 0.0219159 -11.3555 -11.5168
2 3.64766 -11.3846 -11.6245
3 7.43593 -11.4647 -11.511
1 11.3892 -11.4131 -11.4002
3 15.1373 -11.2945 -11.2888
2 -18.7107 -7.90978 -11.6212
2 -15.332 -7.60893 -11.5556
1 -11.4411 -7.72497 -11.5379
2 -7.5643 -7.4817 -11.4497
1 -3.88212 -7.58411 -11.5287
3 -0.135238 -7.58779 -11.4874
3 3.74775 -7.52138 -11.5808
2 7.6675 -7.5864 -11.428
3 11.2923 -7.42181 -11.4069
3 14.9991 -7.59085 -11.28
1 18.7461 -7.6208 -11.1741
3 -19.0404 -3.84553 -11.93
3 -15.1926 -3.81637 -11.5299
2 -11.3839 -3.88397 -11.793
1 -7.62682 -3.8203 -11.7984
1 -3.96135 -3.76533 -11.6477
2 -0.2021 -3.73551 -11.6074
2 3.5955 -3.70867 -11.7063
2 7.51836 -3.76511 -11.6188
2 11.3318 -3.64361 -11.5642
2 15.0012 -3.7515 -11.6823
3 18.8718 -3.85525 -11.4509
3 -18.8104 0.111331 -11.3866
2 -15.0362 0.0657482 -11.6826
2 -11.4019 -0.0213675 -11.5004
2 -7.58006 -0.0318812 -11.568
2 -3.9273 -0.116922 -11.6279
2 -0.165606 0.206798 -11.568
2 3.73674 0.0697328 -11.6767
3 7.49005 0.183279 -11.4727
1 11.3566 -0.0323911 -11.7346
3 15.0537 0.129951 -11.5414
2 18.6423 0.00451317 -11.5257
2 -19.0567 4.26188 -11.6806
3 -15.1753 3.82262 -11.4183
1 -11.2758 3.83282 -11.4542
1 -7.58326 3.78874 -11.5442
2 -3.96741 3.9631 -11.4016
3 -0.186648 3.90288 -11.7325
2 3.69301 3.90718 -11.5793
2 7.55242 3.85555 -11.6567
3 11.3573 3.97692 -11.5952
2 15.1594 3.59759 -11.6765
2 18.8104 3.87788 -11.6756
3 -18.6422 7.69887 -11.2517
3 -14.9506 7.72239 -11.2153
2 -11.1934 7.69059 -11.4004
3 -7.55085 7.64944 -11.5857
1 -3.84716 7.72913 -11.4965
1 0.0254968 7.80795 -11.5422
3 3.95746 7.82359 -11.7033
1 7.53039 7.75071 -11.6693
3 11.2673 7.67435 -11.6558
3 15.0587 7.51562 -11.6819
3 18.7109 7.78466 -11.6153
3 -15.151 11.3452 -11.5543
2 -11.2206 11.3989 -11.4046
1 -7.4947 11.5387 -11.6654
3 -3.83621 11.5348 -11.5784
1 0.0634512 11.5489 -11.6029
2 3.95701 11.4932 -11.8395
2 7.58793 11.5899 -11.5873
1 11.5893 11.5818 -11.6694
2 15.1374 11.3525 -11.6958
1 -12.1324 15.6887 -12.0714
2 -7.36276 15.4397 -11.6055
3 -3.62457 15.3627 -11.6184
2 -0.0588605 15.417 -11.7715
1 3.84835 15.525 -11.5622
2 7.76134 15.4695 -11.7793
2 11.5907 15.6047 -11.9345
1 -8.09286 19.0266 -11.8492
1 -4.0819 19.6018 -11.9829
1 0.0846387 19.6103 -11.8502
3 3.84937 19.2605 -11.6242
2 7.74152 19.0768 -11.7151
2 0.0725617 -22.853 -7.76115
2 -11.3157 -19.0258 -7.7699
1 -7.54232 -19.0577 -7.68374
1 -3.83114 -19.1773 -7.85248
2 -0.080391 -18.8909 -7.48295
2 3.73113 -18.9846 -7.46643
2 7.11459 -19.3148 -7.62375
1 11.6765 -19.1106 -8.09638
1 -15.3905 -15.3714 -8.10994
2 -11.3064 -15.3672 -7.46877
2 -7.59727 -15.3103 -7.47077
1 -3.76935 -15.1954 -7.63096
1 -0.0630161 -15.3278 -7.5153
2 3.75567 -15.2541 -7.55153
2 7.24498 -15.2852 -7.73579
3 11.2366 -15.3861 -7.60052
3 15.0468 -15.0375 -7.48928
1 -18.8259 -11.5464 -7.89171
3 -15.2879 -11.6141 -7.66291
3 -11.5143 -11.4465 -7.57696
2 -7.62361 -11.5769 -7.74012
1 -3.93456 -11.5226 -7.59592
2 -0.104825 -11.5901 -7.59644
2 3.71111 -11.3609 -7.65642
1 7.5497 -11.3585 -7.56176
2 11.2557 -11.545 -7.57569
2 14.9875 -11.3961 -7.4899
1 18.7278 -11.6032 -7.73295
1 -18.8743 -7.70703 -7.58568
2 -15.268 -7.79941 -7.77538
2 -11.2971 -7.82808 -7.56256
2 -7.80611 -7.47271 -7.69682
1 -4.03859 -7.70649 -7.65873
3 -0.0430185 -7.46057 -7.62268
2 3.61472 -7.74774 -7.68264
2 7.49416 -7.59217 -7.60478
3 11.2247 -7.7379 -7.52798
2 14.9111 -7.68279 -7.5063
3 18.8032 -7.57869 -7.44546
2 -19.0343 -3.60016 -7.88363
2 -15.2198 -3.86276 -7.83443
3 -11.4814 -3.89402 -7.79293
1 -7.58367 -3.82368 -7.68831
3 -3.98099 -3.81889 -7.65742
2 -0.0249692 -3.58386 -7.83734
3 3.67494 -3.79892 -7.67357
2 7.51673 -3.71743 -7.64004
3 11.3557 -3.83886 -7.67885
2 14.9209 -3.78674 -7.72767
3 18.8995 -3.75617 -7.61773
2 -22.7564 0.102738 -7.82378
1 -19.0016 -0.144845 -7.66734
3 -15.109 -0.00264237 -7.80813
2 -11.2887 -0.0970014 -7.76522
2 -7.50406 0.012862 -7.66322
2 -3.86089 -0.00950022 -7.88151
3 -0.183331 -0.0275271 -7.65894
3 3.77151 0.160055 -7.85094
2 7.55385 0.205661 -7.76051
1 11.1852 0.091013 -7.69648
3 15.0303 -0.117721 -7.75084
3 18.7298 0.0513331 -7.71182
2 22.2701 0.00388045 -7.82373
3 -18.9772 3.79881 -7.58386
2 -15.1802 3.79982 -7.61193
3 -11.2139 3.84959 -7.77307
3 -7.45697 3.75938 -7.68063
2 -3.75997 3.84587 -7.85607
1 0.0527541 3.80602 -7.67475
2 3.72283 3.92424 -7.83388
3 7.41885 3.81466 -7.69492
2 11.1804 3.76019 -7.86313
1 15.1773 3.83996 -7.80882
2 18.6594 3.87931 -7.60977
2 -18.8648 7.6786 -7.72173
1 -15.1594 7.69181 -7.79264
2 -11.2276 7.37976 -7.61253
3 -7.50408 7.63316 -7.85003
2 -3.71634 7.69246 -7.79342
1 -0.0044926 7.71752 -7.96695
3 3.77447 7.75946 -7.90251
2 7.41366 7.65245 -7.55039
3 11.2981 7.55573 -7.72349
2 15.0352 7.89924 -7.6923
1 18.8107 7.58053 -7.67371
3 -18.405 11.4653 -7.64109
2 -15.0969 11.399 -7.56445
3 -11.2347 11.4825 -7.70845
3 -7.51649 11.5422 -7.88211
1 -3.7229 11.4172 -7.70178
1 0.0170127 11.5774 -7.98472
1 3.79536 11.7279 -7.89325
3 7.74131 11.7416 -7.87122
3 11.3629 11.5887 -7.90262
1 15.2024 11.4004 -7.77057
2 19.1039 11.4806 -7.79991
2 -15.0559 15.0712 -7.76635
2 -11.1795 15.4528 -7.76127
3 -7.5648 15.3091 -7.82639
2 -3.72941 15.3665 -7.93056
3 0.319611 15.51 -7.92878
1 3.89942 15.5646 -7.94345
2 7.73356 15.4274 -7.79237
2 11.475 15.3869 -7.94013
3 14.8855 15.1678 -8.00357
1 -11.4805 18.8354 -7.8702
3 -7.4157 18.9561 -7.78211
1 -3.64127 19.2424 -7.93133
3 0.083032 19.3754 -7.81251
1 3.88742 19.3449 -7.72461
2 7.95011 19.2655 -7.78766
1 11.3292 19.0839 -7.89036
2 0.187374 22.8326 -7.55749
2 -3.50358 -22.9003 -4.4134
3 0.216235 -22.8433 -3.79092
2 3.86474 -22.8335 -3.72251
1 -12.0422 -19.377 -3.70519
3 -7.53161 -19.1561 -3.8874
1 -3.90185 -19.2041 -3.67108
1 -0.0266712 -19.0006 -3.84183
1 3.71687 -19.0079 -3.62233
1 7.31125 -19.07 -3.80117
3 11.3236 -19.0057 -3.89291
1 -15.5517 -15.5703 -3.77873
3 -11.3531 -15.3877 -3.6545
3 -7.43261 -15.3487 -3.9664
3 -3.74905 -15.4639 -3.63594
2 -0.147521 -15.4222 -3.44556
1 3.77136 -15.4359 -3.60429
2 7.4224 -15.3184 -3.68486
2 11.258 -15.3312 -3.66047
3 15.1521 -15.3169 -3.70299
3 -18.8517 -11.3971 -3.96145
2 -15.1735 -11.3913 -3.86301
1 -11.3871 -11.667 -3.81881
3 -7.66899 -11.5858 -3.85523
1 -3.54428 -11.6058 -3.65297
1 -0.00825966 -11.6389 -3.48549
2 3.54579 -11.4685 -3.6656
2 7.51915 -11.5372 -3.6089
2 11.3766 -11.5046 -3.8409
2 15.1062 -11.3393 -3.60733
1 18.881 -11.5134 -3.78896
2 -19.3038 -7.29379 -3.88813
1 -15.2381 -7.68478 -3.92922
2 -11.5056 -7.69976 -3.82957
2 -7.76174 -7.70901 -3.45887
2 -3.57574 -7.6748 -3.61396
2 0.0677059 -7.64289 -3.57704
2 3.80499 -7.74764 -3.76687
2 7.51542 -7.66166 -3.81379
1 11.28 -7.36094 -3.78044
1 14.8741 -7.46488 -3.65974
2 18.6164 -7.48415 -3.65604
1 -21.6863 -4.65624 -4.20898
1 -19.0507 -3.98638 -3.81803
1 -14.8656 -3.96227 -3.89589
1 -11.4713 -3.9121 -3.7392
1 -7.55563 -3.75806 -3.74672
2 -3.57389 -3.99841 -3.78484
1 -0.0201531 -3.75372 -3.8733
1 3.74783 -3.98834 -3.8634
1 7.51892 -3.83915 -3.76599
3 11.2311 -3.82326 -3.78149
3 15.025 -3.88612 -3.64534
1 18.708 -3.74128 -3.86565
3 22.6077 -3.92837 -4.03906
2 -23.028 -0.38783 -3.49317
3 -18.9184 -0.250155 -4.0244
3 -14.9183 -0.204815 -3.92308
2 -11.2188 -0.244666 -3.84359
3 -7.67883 -0.23723 -3.8826
2 -3.64894 -0.0876916 -3.76551
2 0.214962 0.0359552 -3.83069
3 3.67876 0.105005 -3.90201
2 7.4272 0.052144 -3.90607
2 11.2941 0.0303193 -3.88222
2 14.9171 -0.100443 -3.92627
2 18.6113 0.0237631 -3.99209
3 22.4594 0.0194894 -4.13501
3 -22.6518 3.78511 -3.86012
1 -18.8356 3.53394 -3.87322
3 -14.9842 3.68588 -3.77152
2 -11.2716 3.58551 -3.91145
2 -7.48749 3.60843 -3.90364
1 -3.72278 3.71248 -4.05593
2 0.0373937 3.96774 -3.84393
2 3.66024 3.90965 -3.83318
2 7.45686 3.84203 -3.75087
3 11.2273 3.88118 -3.97326
2 15.0132 3.99133 -3.89522
2 18.8433 3.82327 -3.86648
1 22.4453 3.71048 -4.02103
2 -18.7645 7.53704 -3.72197
2 -15.0491 7.6072 -3.89869
2 -11.3347 7.64433 -4.03692
2 -7.27166 7.58688 -3.96481
2 -3.68518 7.71177 -4.2143
2 -0.0249952 7.62066 -3.99117
1 3.75933 7.60188 -3.88889
2 7.53668 7.67498 -3.79808
3 11.3119 7.91197 -3.89471
2 15.1795 7.68078 -3.89083
2 18.7032 7.70205 -4.0475
2 -18.7695 11.6247 -4.12609
1 -15.0794 11.4563 -3.90129
3 -11.1038 11.5424 -3.96384
1 -7.54386 11.576 -3.97116
3 -3.63608 11.4928 -4.13794
1 0.127334 11.5561 -4.00217
1 3.68629 11.4614 -4.11252
1 7.54236 11.5875 -3.99436
3 11.4248 11.5811 -3.91219
2 15.4003 11.6149 -3.99565
2 19.6824 11.905 -4.99472
2 -15.1827 15.4725 -4.02977
3 -11.2028 15.46 -3.98254
3 -7.44858 15.3118 -4.06105
3 -3.7013 15.1755 -4.21923
1 -0.0174795 15.3147 -3.84244
2 3.96799 15.4685 -3.95101
2 7.81312 15.2458 -3.81062
2 11.435 15.4108 -3.77805
2 15.554 15.1074 -3.92771
1 -11.3768 19.2001 -4.15772
2 -7.49317 19.0343 -3.91243
3 -3.83934 19.0066 -4.02496
2 0.0750556 19.1351 -3.85277
3 3.89725 19.3099 -3.93399
3 7.80488 19.3092 -3.97136
2 12.139 20.372 -4.32851
3 -3.7745 22.8216 -3.91225
2 -0.21727 22.7214 -3.94534
2 3.95009 22.9432 -3.91494
2 -6.02607 -23.5445 -0.0218027
1 -3.67163 -23.0716 -0.0433385
3 -0.0366443 -22.9841 0.140812
1 3.62765 -23.0521 -0.249269
2 7.37019 -22.8236 -0.265651
3 -11.4035 -19.1348 0.270146
1 -7.69771 -19.0691 0.0225316
1 -4.0622 -18.9876 0.158038
3 -0.0523283 -19.1543 0.170843
3 3.60285 -19.1208 0.137944
2 7.6122 -19.0988 0.148688
2 11.3038 -19.2273 0.0578338
2 -15.0023 -15.2076 0.180502
2 -11.3959 -15.4564 0.185742
3 -7.53062 -15.3987 0.14569
2 -4.00461 -15.2645 0.0654356
3 -0.0462632 -15.4144 0.310742
1 3.75104 -15.3115 0.0710986
3 7.47353 -15.143 0.0565833
1 11.3066 -15.6078 0.0566133
2 14.979 -15.2167 0.141292
2 -18.7856 -11.3951 0.030644
2 -15.0726 -11.6167 0.0991242
3 -11.1854 -11.6108 0.310185
3 -7.58241 -11.6356 0.170066
1 -3.86763 -11.7341 0.362967
3 0.0224779 -11.5928 0.162384
2 3.71093 -11.5207 0.0797365
3 7.55678 -11.5609 0.209777
1 11.3062 -11.3236 0.212801
1 14.7842 -11.5763 0.127342
2 19.0682 -11.4974 0.0411123
2 -22.7026 -7.60926 -0.323004
3 -18.6703 -7.70912 0.023105
3 -14.9998 -7.80691 0.136902
3 -11.3499 -7.89676 0.0613355
2 -7.52974 -7.88056 0.257108
2 -3.85296 -7.77837 0.175438
1 0.0956211 -7.71046 0.223838
3 3.81266 -7.65668 0.0857908
2 7.54546 -7.64804 0.152573
3 11.1283 -7.7016 0.1822
1 15.1164 -7.407 0.125704
2 18.6847 -7.59571 0.126604
2 22.6088 -7.39979 0.19037
3 -22.5054 -4.20217 0.148344
2 -18.862 -4.12489 0.0417629
2 -14.9234 -4.01745 0.153217
2 -11.2468 -3.92566 0.0592788
2 -7.52684 -4.04766 0.24375
3 -3.68007 -3.98933 0.230237
2 0.14494 -3.92335 0.290135
2 3.62905 -3.94089 0.145407
1 7.44141 -3.91657 -0.109008
1 11.2041 -3.88474 0.120327
3 14.9317 -3.77267 0.0561164
3 18.6291 -3.73369 0.0235552
2 22.7476 -3.63799 -0.15848
1 -22.9009 0.243298 0.131784
2 -18.7438 -0.176083 0.0103514
2 -15.1477 -0.188583 -0.0970562
1 -11.3386 -0.153266 0.0964302
3 -7.54125 -0.108499 -0.0349276
2 -3.82112 -0.257128 0.263444
2 0.088086 -0.0673782 0.141203
1 3.70349 -0.121447 0.0908004
3 7.41716 -0.0991627 0.0553756
3 11.1002 -0.0637546 0.0430967
3 14.8543 0.0612147 0.00729528
3 18.8435 0.0169717 -0.0985254
3 22.4788 -0.0939383 0.00415018
1 -22.8631 3.00581 0.116123
2 -18.8181 3.64131 0.0134077
1 -15.0853 3.6386 -0.0169676
3 -11.2669 3.78673 -0.131245
2 -7.38796 3.58878 -0.0211573
2 -3.81454 3.75154 -0.142691
1 -0.114313 3.79906 -0.0150361
1 3.75541 3.8178 0.00535066
2 7.59872 4.08685 0.123254
1 11.2973 3.90906 -0.0823799
3 15.1601 3.78545 0.0760934
2 18.8319 3.91334 0.123523
2 22.5659 3.83924 -0.0084526
3 -22.5569 7.42825 -0.179659
3 -18.5562 7.55346 -0.266443
1 -14.9728 7.54151 -0.224298
2 -11.1714 7.35887 0.0897385
2 -7.24429 7.62587 -0.143195
2 -3.54282 7.62281 -0.0260925
1 -0.113726 7.61722 -0.105605
3 3.68678 7.61332 -0.100961
3 7.63665 7.5703 -0.0245432
3 11.4538 7.6212 0.0558042
2 15.0713 7.71219 -0.135573
2 18.8867 7.5841 -0.0433978
1 22.6224 7.67168 -0.202777
1 -18.8748 11.616 -0.196291
1 -14.9768 11.2026 -0.0237275
3 -11.1433 11.4988 -0.182023
3 -7.39667 11.5388 -0.312207
2 -3.57126 11.3671 -0.0987008
3 0.031363 11.4874 -0.186229
2 3.82817 11.5754 -0.208206
2 7.5722 11.4451 -0.0486329
2 11.3779 11.653 -0.130091
2 15.1451 11.5351 0.0375156
3 19.0619 11.371 -0.0713137
3 -14.8179 14.9717 0.0689069
3 -11.0884 15.2683 -0.0995998
2 -7.45639 15.2496 -0.123903
2 -3.5827 15.3493 0.168384
1 0.124435 15.3861 -0.0461888
2 4.02493 15.443 -0.157249
1 7.5142 15.4281 -0.125635
3 11.3508 15.3214 -0.00920643
3 15.2858 15.319 0.0291903
2 -11.463 19.3249 -0.0990681
3 -7.43728 19.1564 -0.220697
2 -3.82752 18.9909 0.0488501
1 0.127874 19.1327 -0.0624808
1 3.95554 19.164 0.0414623
3 7.66929 19.1226 0.0971279
3 11.6859 19.3125 -0.110184
3 -7.43153 22.5771 0.0240804
3 -3.54072 22.7808 -0.00993069
1 0.0776248 22.9384 0.0372027
2 3.8264 22.8558 0.00686194
3 7.48595 22.9182 -0.278351
2 -3.70787 -23.221 4.15665
1 0.0963107 -23.2832 3.64524
2 3.67773 -22.8525 4.00171
2 -11.5402 -19.0802 3.94979
3 -7.68874 -19.1613 3.80436
1 -4.0037 -19.1217 3.86181
1 -0.140144 -19.2154 3.92583
2 3.80438 -19.1355 4.04432
2 7.55099 -19.0759 3.84686
2 11.3702 -19.0587 4.05135
2 -15.2892 -15.3274 3.92301
2 -11.4071 -15.2665 3.99547
2 -7.50327 -15.3784 4.0974
3 -3.85839 -15.4955 3.98978
2 -0.0657456 -15.3527 4.12666
3 3.71407 -15.2386 4.06604
1 7.53728 -15.3114 3.90839
3 11.4733 -15.3654 4.0253
2 15.3176 -15.3749 4.00246
2 -19.1597 -11.7098 3.97742
3 -15.2139 -11.5259 3.98415
1 -11.3428 -11.6766 3.83505
3 -7.48645 -11.5906 4.01971
2 -3.79233 -11.6031 4.1327
2 -0.0506841 -11.6883 4.15146
1 3.85863 -11.4422 4.00296
2 7.55185 -11.5222 4.11648
2 11.4572 -11.4182 4.197
2 15.0287 -11.5529 3.98911
3 18.8173 -11.437 3.90805
2 -18.7634 -7.61542 3.96651
3 -14.9916 -7.77699 4.02249
3 -11.3465 -7.78897 3.93897
3 -7.50822 -7.87599 3.95133
3 -3.78358 -7.79577 3.90354
2 0.0128934 -7.81148 3.88506
3 3.72227 -7.88686 3.96286
2 7.52478 -7.6584 3.97015
2 11.3285 -7.57599 4.0675
2 15.0605 -7.43722 3.92546
1 18.8396 -7.54073 3.91255
3 -22.5402 -3.85229 3.96874
2 -18.9506 -4.01322 3.96032
2 -15.0468 -4.0338 3.92292
2 -11.3629 -4.15379 3.93146
2 -7.42631 -4.11944 3.74726
3 -3.66911 -3.98486 3.84078
3 -0.0667478 -3.99453 3.97787
3 3.73336 -3.90128 3.93754
2 7.48786 -3.97882 4.0778
3 11.1614 -3.93708 3.939
2 15.1193 -3.74416 3.75804
3 18.8921 -3.71169 3.85347
2 22.7016 -3.902 3.61405
2 -22.923 -0.385715 3.84038
1 -18.7419 -0.113915 3.92269
2 -15.0553 -0.108916 3.87791
1 -11.3515 -0.145945 3.86385
2 -7.46541 -0.353295 4.03055
1 -3.82753 -0.0998551 3.95384
2 0.0216762 -0.142243 4.10205
2 3.60891 -0.0827535 3.89907
2 7.56889 0.0381278 4.03045
1 11.227 0.0356949 3.99332
1 14.8341 -0.0481984 3.71521
3 18.8618 0.132165 3.62467
1 23.0234 0.0200434 3.69756
2 -22.4395 3.83871 3.53429
2 -18.858 3.80669 3.60433
2 -15.1843 3.69503 3.61915
2 -11.1884 3.7017 3.62695
2 -7.46585 3.72025 3.76917
2 -3.87214 3.78305 3.92397
2 0.00935761 3.73309 3.8684
2 3.57409 3.73979 3.82922
1 7.50423 3.74414 4.01562
1 11.2729 3.85361 3.70002
2 15.1783 3.83784 3.76456
2 18.9379 3.91139 3.71468
2 22.7927 3.89745 3.55352
2 -18.6983 7.54217 3.62142
1 -15.1196 7.47533 3.72208
2 -11.0916 7.44992 3.51319
2 -7.33922 7.46173 4.0178
2 -3.75379 7.61023 3.80465
2 0.0307102 7.76474 3.94202
2 3.59217 7.56486 3.70703
3 7.48947 7.61536 3.81329
3 11.2567 7.70443 3.75084
3 15.1291 7.59867 3.71925
3 18.8639 7.62782 3.681
2 -18.7315 11.6336 3.90833
2 -14.7868 11.3924 3.68982
1 -11.1872 11.4474 3.57132
1 -7.31148 11.5169 3.71883
1 -3.63989 11.4124 3.79864
3 0.378748 11.6077 3.78547
2 3.98595 11.5045 3.91233
1 7.55526 11.4371 3.94023
2 11.4709 11.5443 3.95211
3 14.9184 11.6245 3.84596
3 18.8217 11.5089 3.95445
3 -14.9889 15.3166 3.86334
3 -11.2666 15.0607 3.67116
2 -7.34003 15.2133 3.87468
3 -3.54105 15.2156 3.78567
3 0.128845 15.2822 3.80413
3 3.75275 15.3824 3.79127
2 7.73347 15.3661 3.74528
1 11.5252 15.261 3.92847
1 15.2073 15.1936 3.98929
2 -11.3592 19.041 4.0691
1 -7.42568 19.072 3.73125
2 -3.70242 19.1074 3.63523
1 0.011161 19.1021 3.77537
2 3.97332 19.1153 3.89953
2 7.65521 19.2369 4.08925
2 11.6583 19.3945 3.78179
3 -3.60971 22.7761 3.73824
1 0.103074 22.8289 3.57111
2 3.93042 22.8748 4.21321
3 -0.115919 -22.8354 7.5827
1 -11.4381 -19.0884 8.00578
1 -7.45438 -19.1596 7.86304
2 -3.73754 -19.2846 7.83935
2 -0.00896576 -19.2156 7.97574
2 3.76376 -19.4459 7.98247
3 7.49141 -19.1663 7.7599
1 11.319 -18.9363 7.80184
3 -15.0425 -15.4007 8.00772
1 -11.5968 -15.4709 7.74433
2 -7.61295 -15.2254 7.85523
3 -3.77576 -15.4753 7.80399
3 0.0929156 -15.5103 8.00746
1 3.9237 -15.314 7.97173
3 7.65616 -15.404 7.71478
1 11.6307 -15.2536 7.73197
3 15.029 -15.2798 7.83162
2 -18.7272 -11.5139 7.9225
2 -15.213 -11.5388 7.63231
2 -11.5206 -11.5585 7.90142
2 -7.7589 -11.6976 7.84791
2 -3.8753 -11.5975 7.9548
1 -0.08265 -11.6742 7.7537
3 3.95409 -11.4896 7.83804
3 7.63168 -11.4003 7.96058
2 11.5577 -11.3491 7.84179
2 15.2753 -11.4111 7.77428
1 18.7249 -11.5915 8.29207
2 -18.6743 -7.70162 7.82428
2 -15.1375 -7.72626 7.68937
1 -11.4181 -7.95682 7.80258
2 -7.62261 -7.85544 7.84758
1 -3.65783 -7.8585 7.88641
2 0.149872 -7.83185 7.81259
2 3.75125 -7.608 7.97613
3 7.4196 -7.57328 7.82699
1 11.2352 -7.6601 7.85169
3 15.078 -7.55609 7.83942
3 18.9097 -7.37987 7.82631
1 -18.8187 -3.96846 7.69095
1 -14.9929 -3.98696 7.60091
3 -11.2776 -4.11975 7.63742
2 -7.31673 -4.20914 7.61894
2 -3.8884 -3.98906 7.91826
3 0.148131 -3.81894 7.91493
2 3.80706 -4.00069 7.75272
1 7.53108 -3.86223 7.85295
1 11.1901 -3.7035 7.8161
1 15.1815 -3.65533 7.60606
2 18.9135 -3.56822 7.56122
3 -22.4095 -0.171308 7.35656
1 -18.7914 -0.0702888 7.46589
2 -14.948 -0.270981 7.55092
1 -11.3201 -0.102397 7.71263
2 -7.55675 -0.19642 7.61652
3 -3.74808 -0.275561 7.69193
1 -0.143243 -0.0533367 7.72508
2 3.77708 -0.253093 7.74644
3 7.43634 -0.00513753 7.94925
3 11.2396 -0.0457378 7.79006
3 15.2254 -0.142026 7.55102
2 18.9019 -0.00493991 7.85371
2 22.6485 0.364271 7.29506
1 -18.7893 3.71793 7.54344
2 -15.1037 3.52177 7.39258
2 -11.1615 3.62792 7.54211
1 -7.64384 3.80146 7.66615
3 -3.60168 3.82619 7.85855
2 -0.113195 3.7197 7.9664
1 3.85376 3.71736 7.47077
2 7.5702 3.80503 7.59727
3 11.4288 3.66493 7.61918
2 15.0684 3.7864 7.72607
2 18.7587 4.0034 7.77189
3 -18.9278 7.43367 7.58812
2 -15.0402 7.55007 7.6827
2 -11.3103 7.44286 7.59446
2 -7.40037 7.51106 7.82047
3 -3.56882 7.65898 7.89926
1 0.0736012 7.73103 7.80755
1 3.74204 7.47121 7.53888
1 7.60545 7.54508 7.54913
2 11.2992 7.66681 7.65522
2 15.1731 7.52821 7.48341
1 18.7784 7.69626 7.70981
3 -18.5568 11.275 7.56439
1 -15.012 11.4639 7.47993
3 -11.1791 11.2892 7.37784
2 -7.32702 11.5556 7.72002
2 -3.78366 11.4544 7.74863
2 0.167549 11.3481 7.47492
2 3.7226 11.4411 7.56004
2 7.57118 11.3386 7.64988
1 11.3923 11.4703 7.47555
2 15.0778 11.3294 7.58779
1 18.7924 11.4555 7.60505
2 -15.1606 15.4107 8.09669
1 -11.34 15.2623 7.78666
3 -7.45599 15.1888 7.58962
3 -3.44533 15.175 7.50428
3 0.0815742 15.2234 7.49448
3 3.88882 15.3719 7.81161
3 7.70668 15.271 7.56643
2 11.493 15.1662 7.57924
3 15.0333 15.0568 7.68218
3 -11.2702 18.7318 7.79467
2 -7.36475 18.9738 7.62624
3 -3.57343 19.0592 7.77955
2 0.263362 19.0252 7.52907
2 3.78368 19.2367 7.65542
2 7.77197 19.0401 7.63706
2 11.5642 19.1486 7.70963
2 -0.0344144 22.8127 7.59156
3 -7.72198 -18.9304 11.6256
1 -4.12987 -19.6301 12.1248
2 0.109237 -19.3042 11.6829
3 3.98465 -19.3672 11.6835
3 7.71983 -19.1082 11.5644
1 -12.0558 -15.7193 12.2233
2 -7.46106 -15.5506 11.6961
2 -3.78367 -15.5917 11.6549
1 -0.00754253 -15.5591 11.4909
3 3.85756 -15.3396 11.643
3 7.72725 -15.0905 11.568
1 11.6973 -15.4426 11.7667
2 -15.2719 -11.6886 11.6164
3 -11.5594 -11.6554 11.6902
2 -7.76934 -11.7254 11.6723
2 -3.71955 -11.4793 11.8279
1 -0.000998107 -11.4815 11.6552
3 3.91594 -11.5968 11.7726
2 7.63195 -11.484 12.005
3 11.3333 -11.4286 11.6377
1 15.1242 -11.4432 11.7336
3 -18.6144 -7.97107 11.5865
3 -15.2029 -7.78247 11.5714
2 -11.4979 -7.87221 11.5648
3 -7.61036 -7.78432 11.6719
3 -3.83542 -7.87167 11.7982
2 -0.0118179 -7.82768 11.8052
1 3.78688 -7.60837 11.7238
1 7.57646 -7.72652 11.7949
2 11.2477 -7.56601 11.6786
1 15.1239 -7.7233 11.5148
1 18.8516 -7.63745 11.6546
2 -19.4724 -4.64781 11.7524
2 -15.0717 -3.76388 11.3831
2 -11.3369 -3.81848 11.2988
2 -7.58635 -3.95625 11.7962
2 -3.73388 -3.82475 11.4577
1 -0.0378975 -3.94128 11.7301
3 3.66139 -3.99325 11.7944
2 7.4607 -3.95691 11.7148
2 11.4127 -3.79185 11.6635
2 15.4043 -3.72917 11.7552
2 19.0411 -4.11402 11.8082
3 -19.0353 -0.188417 11.3465
2 -15.1696 -0.15057 11.4413
3 -11.4679 -0.15329 11.4362
1 -7.63798 -0.243791 11.4715
2 -3.9007 -0.112392 11.7402
3 -0.0461154 -0.212772 11.6257
1 3.8362 -0.0271011 11.7022
1 7.53329 -0.129502 11.7859
2 11.3369 -0.0922866 11.6662
2 15.1857 0.180759 11.6988
1 19.4134 -0.0805085 11.8655
2 -18.9049 3.84673 11.2175
1 -15.3065 3.88518 11.405
1 -11.3912 3.76369 11.4461
1 -7.59919 3.57111 11.537
3 -3.93191 3.4683 11.5708
3 0.0726733 3.73509 11.4813
1 3.80626 3.78008 11.7006
3 7.43547 3.70531 11.6831
2 11.291 3.96591 11.4642
3 15.1192 3.83007 11.6044
3 18.8148 3.91368 11.8422
2 -18.9822 7.55607 11.6848
1 -15.11 7.49222 11.4112
2 -11.3031 7.4191 11.4688
1 -7.56278 7.40445 11.4978
2 -3.74229 7.39097 11.6243
1 -0.013392 7.3723 11.561
3 3.93824 7.57604 11.5014
2 7.53503 7.59444 11.3915
1 11.4202 7.54404 11.2707
1 15.0946 7.61943 11.3424
1 18.4736 7.92701 11.6039
2 -14.9048 11.2888 11.1228
3 -11.372 11.3703 11.2707
1 -7.54325 11.2252 11.3385
3 -3.65404 11.381 11.6002
2 0.0805539 11.2754 11.3802
1 3.90223 11.3179 11.629
2 7.6659 11.6072 11.4429
2 11.512 11.5215 11.4561
2 15.0691 11.8243 12.0123
3 -11.1722 15.1794 11.3399
2 -7.42524 15.3182 11.3529
2 -3.56115 15.1738 11.5279
2 0.142932 15.0943 11.6107
2 3.86204 15.1577 11.5165
1 7.64031 15.2636 11.4508
2 11.2605 15.2541 11.2951
1 -7.65995 18.6926 11.2909
1 -3.97786 19.2308 11.678
2 -0.436009 19.2881 11.9685
2 3.93855 19.0964 11.5894
3 7.69698 19.1162 11.4476
3 -7.88439 -15.4587 15.5496
2 -3.87775 -15.675 15.6686
2 0.0448205 -15.5151 15.2729
1 3.95391 -16.5493 16.635
2 7.92564 -15.4877 15.6271
3 -11.4356 -11.5138 15.4747
2 -7.64156 -11.6775 15.63
2 -3.87876 -11.5856 15.6108
3 -0.115707 -11.6589 15.4758
2 3.75444 -11.6712 15.6833
3 7.59963 -11.6256 15.7831
2 11.5231 -11.6171 15.9781
3 -15.0368 -7.91048 15.234
2 -11.6959 -7.87908 15.4413
3 -7.58132 -7.843 15.4982
1 -3.94991 -7.95679 15.6431
2 -0.126419 -7.78246 15.6647
2 3.87871 -7.9057 15.5986
3 7.70697 -7.76734 15.8163
2 11.472 -7.56893 15.4449
3 14.9494 -7.57868 15.2015
2 -15.3852 -4.03932 15.619
2 -11.6044 -3.97859 15.4582
1 -7.5803 -3.86535 15.4967
2 -4.02153 -3.97517 15.4757
1 0.0242602 -3.95082 15.5023
1 3.82793 -4.02027 15.5747
1 7.47056 -3.96786 15.6281
2 11.3691 -3.77359 15.4842
3 15.1599 -3.91658 15.6059
3 -15.3709 -0.14487 15.3807
1 -11.5294 -0.253564 15.4943
3 -7.55621 -0.137084 15.5357
2 -3.76795 0.082179 15.382
1 0.00073191 -0.0540392 15.5097
3 3.84962 -0.13651 15.4983
1 7.56358 0.00978488 15.439
1 11.2907 -0.056136 15.4623
1 15.4278 -0.0887815 15.3882
3 -15.175 3.88481 15.2241
1 -11.5749 3.66159 15.1527
3 -7.46065 3.83207 15.188
3 -3.7697 3.66435 15.2569
2 0.0914361 3.60149 15.5134
2 3.81913 3.68715 15.3101
3 7.55708 3.70808 15.409
3 11.3322 3.83959 15.4206
2 15.2371 3.81629 15.7127
2 -15.1497 8.04811 15.1172
2 -11.4858 7.54455 15.1738
2 -7.51743 7.36642 15.2186
2 -3.7045 7.53506 15.2445
2 0.102085 7.57076 15.3675
2 3.82501 7.56747 15.4014
1 7.52358 7.49033 15.4562
1 11.4665 7.74026 15.524
3 14.909 7.71615 15.3223
1 -12.0496 11.8323 15.2846
1 -7.79978 11.3041 15.1241
2 -3.85014 11.1768 15.2181
2 0.0444038 11.4349 15.3579
2 3.78455 11.406 15.407
2 7.89156 11.3999 15.4544
2 11.3398 11.4514 15.4023
2 -8.30456 15.5085 15.433
2 -4.06588 15.3401 15.4844
2 -0.112751 15.0058 15.3451
2 3.6828 15.3566 15.4475
1 7.8018 15.258 15.2793
1 -7.73616 -11.7123 19.2612
2 -3.99416 -11.9014 19.5882
3 -0.0809764 -11.7691 19.2571
1 3.84994 -12.2094 19.2045
3 7.59694 -11.6252 19.4506
1 -11.7278 -8.12029 19.2156
3 -7.69359 -7.66062 19.4048
2 -3.71591 -7.66883 19.5694
2 0.0531183 -7.7003 19.5008
2 3.78989 -7.8027 19.4489
3 7.44285 -7.41671 19.5242
1 11.6192 -7.73391 19.4647
2 -11.6512 -3.80211 19.2495
1 -7.56454 -3.80053 19.4026
1 -3.86596 -3.7924 19.5065
2 0.134963 -4.11607 19.5037
2 3.85896 -3.79469 19.2679
1 7.65339 -3.704 19.3245
1 11.5485 -3.69933 19.3619
2 -11.7409 0.0194435 19.3265
2 -7.82789 0.345714 19.0561
1 -3.69926 0.0234236 19.2946
1 -0.21161 -0.105181 19.3292
2 3.8627 -0.0611303 19.3134
3 7.51378 0.0134169 19.3372
2 11.3554 0.059092 18.99
2 -11.8144 3.86172 19.0325
1 -7.75713 3.89946 19.2215
2 -3.87397 3.69806 19.3364
2 0.0278137 3.65202 19.1173
2 3.81584 3.82601 19.2989
3 7.5105 3.75719 19.2219
3 11.3061 3.87003 19.1238
2 -11.654 7.6437 18.7583
2 -7.86293 7.48099 19.0526
2 -3.74578 7.58906 19.1544
2 -0.0812403 7.45777 19.0622
2 3.75823 7.49896 19.219
1 7.51872 7.59353 19.0982
3 11.1949 7.93835 19.3644
1 -8.26937 11.6731 18.8977
1 -3.94799 11.2443 19.0247
3 -0.0214329 11.2559 19.0872
1 3.86552 11.317 19.3634
3 7.70947 11.4168 18.939
2 -0.10813 -6.99517 23.8046
1 -4.08678 -3.64654 23.2439
1 -0.0276977 -4.90737 22.5812
2 4.25815 -3.89278 23.1764
1 -7.70781 0.238285 23.1502
2 -3.91706 0.0193893 22.9624
1 -0.0813594 -0.147299 22.9822
2 3.93336 0.148145 22.7431
3 7.47715 0.122463 22.7367
1 -4.29097 4.2954 22.8382
3 -0.211376 3.79545 22.7864
3 3.64314 3.76887 22.7683
3 -0.0873356 7.57522 22.8388
2 -5.64685 -5.86806 -22.969
2 -1.73249 -5.57097 -22.886
1 1.87266 -5.56974 -22.9531
2 5.47848 -5.64732 -23.1187
1 -5.90084 -1.90759 -22.7485
2 -2.10775 -1.70518 -22.9698
2 1.79498 -1.69443 -23.0278
2 5.69676 -1.61129 -23.0525
1 -5.82029 2.12153 -22.7923
2 -1.93448 1.73812 -22.856
2 1.73577 1.99983 -23.0831
2 5.74799 2.02366 -23.1156
2 -5.73864 6.13714 -22.8163
3 -1.90938 5.92376 -23.0172
2 1.9017 5.91455 -22.9025
2 5.88504 6.00582 -23.0011
1 -6.14102 -13.3704 -18.6019
2 -2.00795 -13.0406 -19.0866
1 1.85579 -13.6449 -19.2546
2 5.89843 -13.3622 -18.9557
3 -9.57316 -9.33957 -19.0921
2 -5.84077 -9.49007 -19.2864
1 -1.67518 -9.64483 -19.2018
2 1.78269 -9.56109 -19.3964
3 5.66018 -9.47348 -19.3374
2 9.66209 -9.46634 -18.8301
1 -13.3555 -5.96442 -19.235
1 -9.74677 -5.71964 -19.1044
3 -5.85315 -5.64717 -19.3158
2 -1.90144 -5.52283 -19.1646
3 1.94136 -5.60259 -19.2577
2 5.67623 -5.5086 -19.3921
1 9.88163 -5.33163 -19.8736