452
 Atoms. Timestep: 8000
1 -1.69031 -9.74879 -9.32185
1 -1.7288 2.5165 -10.6251
1 -0.762702 -0.69372 -12.4759
1 -2.5615 -7.58259 -9.37908
1 -0.872584 -3.96943 -14.8799
1 -9.28071 3.25183 -7.42943
1 0.649403 -0.466359 -16.2522
1 5.09406 17.314 -3.90839
1 -2.06269 3.59564 -8.68263
1 10.1309 6.14413 -12.7951
1 -3.15881 5.60846 -8.75489
1 -1.01132 0.597234 -14.4826
1 2.00405 17.4081 -15.0399
1 -3.42025 -12.2334 -5.17883
1 -0.523548 -17.7227 -7.30431
1 0.906488 -11.4599 -5.56042
1 3.91965 -12.6608 -8.43599
1 11.6898 -14.736 -20.3685
1 -2.79547 -4.23025 -7.16361
1 -2.97457 -9.91441 -5.41662
1 3.62686 -18.8802 -19.9309
1 2.66284 -10.8 -7.78317
1 16.9904 -5.93186 -12.3529
1 -4.98852 2.20233 1.76504
1 -5.76772 3.00487 -5.39641
1 4.19771 -0.435143 1.24296
1 -2.96084 -6.51537 -7.42679
1 -3.23587 4.34416 -10.715
1 -1.17182 0.368044 -10.6048
1 8.84356 5.85158 4.58627
1 -5.65394 6.16448 -8.54064
1 7.33184 2.39148 5.86635
1 4.10319 2.98421 8.39983
1 -0.0517141 18.0858 -14.4913
1 -10.7571 19.5703 -13.6097
1 -11.1474 -19.3484 -8.03526
1 -22.0355 -3.88586 5.47986
1 -0.124851 -10.2876 -3.35047
1 -0.71339 -11.8672 -1.86867
1 0.831678 -8.32626 -4.52105
1 2.97591 -7.66675 -5.31663
1 6.46568 -6.21503 -4.2055
1 -16.7064 -13.4529 -8.97213
1 -2.80514 -2.08241 -7.09097
1 -2.24457 -3.0921 -9.01708
1 -20.6385 -16.172 13.0864
1 -5.63003 7.34325 -4.76645
1 15.7589 5.52605 -11.1166
1 -12.2623 2.09342 -0.67625
1 5.81948 3.7954 6.94994
1 7.75416 4.60949 6.29713
1 18.8084 -20.8854 -6.3489
1 11.0148 -4.59795 -0.789849
1 -0.642463 3.02868 2.20418
1 -3.89724 8.76243 -5.31488
1 -3.16196 -6.62277 -3.42925
1 -0.739741 -9.51519 -5.99241
1 3.02372 -5.26527 -2.21475
1 -2.79476 -7.12945 4.40598
1 -4.13729 -8.89675 0.436052
1 2.03967 -6.82753 -3.3605
1 5.28005 -2.08178 -0.0346666
1 -9.3224 2.41147 1.18254
1 -21.5831 -17.7454 11.6195
2 -10.6527 0.838836 0.545745
1 -2.74037 5.70126 -4.85196
1 5.15146 -7.49917 -5.70307
1 9.26215 4.77328 2.65965
1 8.73312 1.00551 4.52542
1 -8.4923 5.73985 2.97447
1 -8.85694 -15.2653 11.4298
1 6.93236 5.24055 3.01057
1 -6.35752 5.8857 1.98971
1 -2.86969 -12.9277 0.967752
1 -4.17539 -11.0955 22.7923
1 -0.164141 -5.16524 0.400491
1 8.83826 -1.08204 1.40556
1 5.84996 8.24419 7.03739
2 3.50116 1.69905 2.74551
1 9.97051 -2.96109 0.43457
1 2.61401 -0.00063986 4.70055
1 8.06937 1.00063 1.9763
2 3.96991 8.50865 -17.0455
1 7.39152 3.06602 2.22406
1 -8.66837 0.0621551 0.978458
1 6.37307 10.1776 7.80013
1 5.41406 1.55357 6.79418
1 1.84133 22.1419 -0.0888145
1 0.659794 -8.57964 3.26705
1 9.9379 -9.87943 22.2214
1 -1.29724 -2.61559 5.82198
1 8.8923 -8.93599 4.41937
1 -4.01596 -6.56933 6.19312
1 -4.88996 -5.97325 4.28558
1 9.68065 -12.0596 22.3743
2 1.27286 0.257363 -13.9266
1 9.45336 -3.17167 2.7759
1 -2.83441 -6.5658 8.0482
1 -0.917181 8.37089 18.7045
1 -1.24855 0.498953 12.0252
1 -2.98836 10.1286 10.4938
1 11.8418 -3.31706 2.97134
1 10.1381 0.197737 2.85
1 -3.69113 4.10683 1.37749
1 6.10245 14.7318 12.4421
1 2.31011 -4.34525 4.36806
1 -1.65113 -5.88151 6.0625
1 0.12428 -0.51626 4.39991
1 -3.09663 -11.1079 19.7314
1 0.0633462 16.953 21.2436
1 7.63343 -5.23758 -2.48521
1 -3.43558 6.33367 6.07373
1 -2.18987 4.59726 5.32831
1 -1.8582 -5.18926 -13.13
1 -1.54564 -9.58152 -13.1969
1 11.3973 16.6599 -18.7584
1 -22.5289 20.2172 -4.74412
1 -2.09748 4.80794 -6.84823
1 2.12471 8.31527 -18.3753
1 -1.27989 3.80313 -4.971
1 -1.1481 -13.0181 -11.7862
1 -2.53094 -8.83437 -7.43446
1 3.80192 -14.497 -7.28195
1 8.81374 -6.59082 -4.06
1 15.5839 -5.08094 -0.558462
1 0.495745 -13.6764 -5.67153
1 6.14914 -9.20551 -6.93486
1 -5.54596 4.27941 -9.71006
1 -6.99282 1.12152 -4.64068
1 -2.7761 -6.33624 -11.2616
1 14.2231 -6.29156 -2.04148
1 15.8014 -4.88281 -10.6588
1 -8.91351 4.09064 -3.60996
1 5.67665 2.29532 -18.9427
1 10.1091 5.34164 6.44734
1 4.10915 8.34764 -19.3124
1 -3.68337 -3.8121 -12.9175
2 8.04319 6.95754 6.41826
1 -4.70709 6.16356 -10.6743
1 1.17993 16.9457 -13.0184
1 -2.43729 10.4651 -5.80102
1 1.84376 2.29634 4.43752
1 -4.59054 -11.0849 -3.50948
1 10.8835 -7.13249 -3.77046
1 3.97128 18.8286 -5.03613
1 1.68807 -9.31185 -6.33148
1 3.96668 -3.5779 -1.06812
1 -14.9265 -5.32538 -10.3585
1 -2.24778 2.30428 -6.54417
1 20.4225 -15.0984 -7.49195
1 -6.63268 6.02474 -6.4374
1 -9.98689 4.84031 -1.67024
1 17.7708 6.38545 -15.2255
1 -8.16678 4.57396 0.0127863
1 -3.44538 9.66851 -1.6835
2 6.22321 7.5215 4.56095
1 0.926314 -3.36009 1.41306
1 19.4923 -9.08117 1.56687
1 6.76687 -9.51266 3.60238
1 -0.689506 -7.01076 1.84874
1 15.3468 -14.0058 -0.250135
1 -15.0137 -13.2222 -2.3662
1 -9.95239 -18.2281 -6.55796
1 -0.666144 -14.9632 -4.12494
1 -3.65316 -4.47135 -3.41062
1 -20.181 -4.56683 5.25107
1 -10.3604 2.58959 -1.92356
1 10.5531 -5.04239 3.33215
1 -8.69064 1.28696 -1.13518
1 -0.279773 4.93603 4.12336
1 -8.92222 1.60563 -3.31252
1 -5.15221 4.97267 -4.49945
2 -7.64877 3.71706 2.11618
1 -9.93148 4.4254 2.03878
1 -7.44778 5.94428 -4.12961
1 9.34401 3.53353 5.0574
1 -2.76984 6.09693 1.45201
1 -4.74441 7.0445 3.16809
1 -2.49313 11.1869 -8.0085
1 -0.721609 -9.11505 1.10461
1 3.07796 -8.15094 3.49931
1 -4.7084 -8.26302 4.57582
1 -0.677905 -6.80063 4.14794
1 -0.34259 -7.28402 -0.30802
1 1.62183 -6.40513 3.58745
1 8.71142 -4.33842 -0.746828
1 23.2859 21.7889 -2.04321
2 -19.2639 -16.858 11.3021
1 -21.3059 -5.29307 3.82673
1 -4.57892 -1.71701 2.70629
1 -3.49142 3.53133 -4.92385
1 20.7507 -2.1547 -1.10978
1 6.63827 -0.622897 1.166
1 -5.73454 -1.39385 -2.04573
1 -6.1472 6.8399 -2.62221
1 3.42118 6.44964 5.15292
1 8.12391 -1.42683 3.79819
1 10.9283 1.50923 4.82275
2 3.4612 -2.26837 5.27694
1 1.656 5.08735 5.52158
1 3.35682 0.951299 7.57061
1 3.09118 -17.6994 13.1702
1 -4.31844 -7.65489 2.4047
1 0.110741 -4.64396 5.19347
1 0.256109 -7.82331 -2.31823
1 18.8401 8.6506 16.3076
1 -7.57509 7.07451 8.60484
1 -0.205812 3.24489 -7.03851
1 -9.76914 22.0794 1.59495
1 8.17575 15.6113 19.2983
1 1.46356 0.469599 2.30383
1 3.79895 4.93832 6.80734
1 6.11349 -5.5624 3.15551
1 8.27572 -5.2323 3.20337
1 -2.39644 3.10812 8.78721
1 6.70217 13.9365 8.65299
1 -0.683318 -15.2316 -12.3069
1 -0.544187 -15.655 -6.29772
1 -0.638147 -12.5282 -3.90107
1 -4.00002 -10.0847 -1.41927
1 5.30631 -4.91352 -2.68229
1 -4.08463 -12.05 2.59196
1 -0.297202 -9.58089 -0.998889
1 -1.56232 -8.95569 3.25063
1 2.31329 -10.1984 2.99619
1 5.871 -11.4768 4.24658
1 -8.96918 2.38038 -5.31721
1 19.7213 -20.1946 -14.1892
2 -21.1249 -13.9804 8.96596
1 -1.27333 -2.99677 -12.8451
1 -3.03304 -7.66025 -5.3962
1 2.05155 -12.9703 -7.13723
1 7.45262 -7.69096 -5.61978
1 -0.857949 -14.3215 -10.0956
1 -1.1727 -11.6748 -13.6241
1 1.00607 -5.84469 -1.53507
1 1.95451 -4.29502 -0.307755
1 16.0446 -13.3857 -2.16913
1 7.50769 -2.6867 0.369267
1 14.2488 -7.86518 11.3073
1 0.11183 -10.8639 2.70101
1 -0.309842 -4.98679 2.69805
2 -4.10636 4.47414 -22.0951
1 4.8229 2.02759 -16.9351
1 -12.9184 -8.86136 -16.6483
1 -0.288056 -2.57206 -16.5894
1 -3.11155 -5.37469 -5.33784
1 15.8672 -7.0687 -10.8263
1 -13.6315 -6.65115 -6.91984
1 -5.40304 -0.291257 -3.94183
1 -2.19213 -11.5811 -7.14093
1 -2.99646 0.204556 -7.0466
1 -11.7529 -17.3116 -7.44325
1 -2.10553 -10.9359 2.19867
1 -3.69098 -7.84038 -1.47877
1 -2.41545 -11.1287 -3.15404
1 11.5072 -9.06099 -4.89075
1 15.0383 -4.80643 19.3574
1 -3.4706 -2.67085 0.706498
1 -2.20076 -1.10646 1.94018
1 -2.95313 -2.35318 4.29134
1 -3.85641 0.334727 2.49838
1 5.88773 1.31867 2.12372
1 -2.06296 2.69467 6.69994
1 11.0691 -1.4368 1.88724
1 -0.4307 -1.76193 -14.4939
1 14.2416 -8.11286 -17.4271
1 -2.291 -8.61356 -11.2451
1 -15.0024 -3.25305 -20.7896
1 4.67499 -0.491446 3.56577
1 -7.41555 2.2092 -6.96586
1 -3.96853 1.3414 -4.96081
1 8.14081 8.87683 4.03402
1 6.43409 15.4426 10.3618
1 14.6195 -3.26805 0.35565
1 -7.04995 1.77337 0.575672
1 -4.7739 -4.45982 0.23667
1 -6.75942 6.72431 4.07519
1 -3.70421 -13.671 -7.06761
1 0.157402 -1.18946 1.79155
1 18.7895 -14.6531 -6.07676
1 0.634306 23.6891 -1.08416
1 -3.62348 -8.9451 19.4109
2 -19.0835 -15.3865 8.76266
1 6.09674 -1.88222 4.68613
2 8.40072 -22.0374 -16.1531
1 -3.29318 8.47779 4.73042
1 2.96068 -4.54194 1.97259
1 -0.0751124 -0.999402 7.01464
1 -1.58333 1.39833 -8.50373
1 -2.16791 -4.15927 -11.1529
1 5.52949 1.81881 4.36265
1 2.59569 -0.442151 -10.1443
1 -3.53362 8.5719 6.86831
1 -12.151 4.05893 -1.88825
1 23.203 2.98362 13.0776
1 -20.3758 17.0272 1.46278
1 -2.61391 8.10546 2.49393
1 1.5386 6.35527 3.54125
1 17.2576 15.3684 -22.7646
1 -2.9811 10.0621 -3.6883
1 1.06894 -2.74161 5.67182
1 6.82464 0.176096 5.44777
1 -4.8714 9.07236 11.3069
1 5.25473 3.61246 2.75484
1 -0.826703 1.13261 8.25099
1 1.88013 18.0182 21.8816
1 -3.96234 7.72875 -8.94634
1 -3.7716 6.31156 -3.04935
1 3.2357 16.2681 -13.5669
1 -7.10449 4.21817 -7.99134
1 8.54419 6.96019 2.70565
1 -9.05006 6.63817 4.88362
1 7.59092 11.8766 6.90605
1 -5.86586 4.07201 0.639645
1 -9.17458 6.32534 7.15053
1 9.61795 -6.94806 3.63116
1 3.73538 -17.9888 -17.8631
1 3.65112 18.6093 -2.87082
1 -8.58295 19.4703 -13.2849
1 -2.23224 4.41594 2.89794
1 5.62559 5.92345 5.99886
1 9.49741 23.4814 -5.68466
1 -0.885905 8.17496 0.772747
1 6.30156 13.2712 10.8465
1 4.80574 5.69486 3.59424
1 -7.48339 -1.65167 1.51086
1 -6.01294 0.0248663 1.51402
1 -14.094 -6.9884 -9.05902
1 -10.9641 3.75401 0.0579951
1 -5.79728 -2.24007 0.0507632
1 -6.82153 -4.86828 3.78766
1 -3.8012 10.4726 12.5487
2 -19.218 -6.9462 -16.1228
1 -5.51042 0.989392 -6.59644
1 -4.51592 8.38246 -11.0995
1 -1.10272 -15.9773 -14.4124
1 -7.28859 0.11678 -2.6507
1 -7.94549 5.6749 -1.98199
1 -6.02849 23.2807 10.1828
1 -14.1123 -7.74232 -5.08502
1 -13.0998 0.145805 -0.284742
1 -4.02576 -9.84958 2.92883
1 -2.7713 2.22783 2.24485
1 -6.22021 8.10872 9.93519
1 -7.36906 7.20683 6.27563
1 -18.2231 18.4528 12.5629
1 -8.6088 -21.7459 10.5836
1 -5.19021 -5.48019 2.19419
1 -6.48496 -3.47557 1.97669
1 -20.9904 -15.3134 10.992
1 -2.43902 10.0491 8.23156
1 -4.84605 -3.70682 3.66833
1 -4.24834 9.00321 9.05362
1 -8.08459 4.43436 -5.74724
1 -7.12741 -0.365802 -0.561445
1 -1.25364 -10.8309 -11.4648
1 -1.0873 -13.8414 -13.9304
1 -2.90745 6.9851 -6.94051
1 -3.50997 9.79337 -9.5397
1 -1.18434 -11.9821 -9.5451
1 -3.38443 -3.17007 -5.28514
1 1.15826 6.9456 1.25648
1 -5.09419 7.60391 -6.84406
1 -3.93132 -11.0285 0.610195
1 -4.32889 -6.62875 0.398193
1 -0.638298 6.66524 2.52151
1 -6.37355 6.03693 -0.428937
1 -0.70778 -11.4765 0.340997
1 -3.59994 -5.38201 -1.42269
1 3.00972 -2.36036 0.717639
1 -5.73451 8.05356 7.74488
1 -2.53815 6.33909 3.90066
1 -3.10187 8.51877 0.346527
1 -14.5328 -4.99401 -8.17295
1 -0.540832 -2.78517 3.59995
1 -2.84223 4.69846 7.37044
1 -2.2528 -0.037235 4.02848
1 -1.93949 -7.45202 -13.081
1 -1.70733 -1.88216 -10.8103
1 -1.26323 1.65503 -12.5412
1 -1.49157 -13.7985 -7.8865
1 -1.33895 -6.3993 -14.9956
1 -3.39942 9.23413 -7.35468
2 0.0843808 -11.1555 -7.71091
1 14.1337 -5.91861 -17.4586
1 -1.78513 -13.7749 -5.69817
1 -3.60085 -9.00246 -3.31229
1 -5.58652 2.45335 -8.35634
1 -4.07036 -0.987805 -5.51878
1 -1.77794 -0.778384 -8.78702
1 -4.6359 8.61605 -3.21266
1 -0.697302 -15.8565 -8.58242
1 -4.5006 -2.31478 -3.67854
1 13.3369 -4.61776 -0.85937
1 -13.5064 -10.4181 -15.2084
1 5.69908 -4.1217 1.40522
1 -4.62406 7.57468 -1.21285
1 4.49545 -9.9437 3.5571
1 4.68507 -3.61691 3.48199
1 0.0813123 3.19823 5.82678
1 1.59728 -17.8836 11.5924
1 -4.96621 -10.2926 20.7842
1 -5.28933 7.69259 5.61127
1 -4.74037 7.08632 0.864471
1 -1.69588 2.34654 4.38598
1 -1.30354 0.710932 6.02097
1 5.01148 -10.5452 -8.25318
1 12.4184 -5.11931 -18.5756
1 1.60077 -1.09531 -12.0069
1 3.87357 -9.03442 -6.72034
1 -1.40185 -8.4834 -3.93139
1 4.14847 -6.19493 -4.03005
1 -2.55171 -5.02334 0.799189
1 0.395173 -1.13479 -10.0052
1 -16.3054 19.499 6.6528
1 1.61037 2.72437 2.13633
1 6.21753 16.1236 -5.37158
1 -4.34992 -3.26987 -1.59956
1 4.72306 -0.418373 6.01366
1 -1.27889 -3.11136 1.37293
1 6.48298 11.8539 9.23993
1 9.80214 -5.59988 -2.34528
1 3.83368 -5.95287 3.49221
1 -7.34431 23.5841 8.44528
1 -1.46211 1.99843 10.4262
1 1.36736 -0.0686409 8.56679
1 3.66417 -10.9098 -9.89277
1 2.30363 3.17325 6.54457
1 9.53351 6.34285 -14.9025
1 9.61467 -8.15611 -5.29298
1 0.825279 4.85477 1.94383
1 -0.911478 0.862568 2.32218
1 -2.62312 -5.27778 -9.21466
1 9.59684 2.54434 3.04961
1 5.67303 -2.53557 -2.40049
1 -2.93363 -9.69546 21.533
1 1.1914 1.08215 6.63386
1 3.0438 4.37926 2.79245
1 7.47767 -7.40135 3.57565
2 2.33695 -1.74711 2.83631
1 -0.178093 0.168395 10.0891
1 5.25874 -7.67649 3.40289
1 2.15383 -2.61739 -10.4276
1 8.4676 -9.30373 -6.93652
1 12.0116 -6.00228 -2.20902
1 12.3538 -3.22344 0.678739
1 7.0202 -3.45729 3.43285
1 6.35754 -4.10534 -0.912127
1 7.49489 9.7173 5.99481
1 22.9259 -1.22279 -2.71485
1 2.50169 -1.1004 6.83502
452
 Atoms. Timestep: 8100
1 -1.43509 -9.78194 -9.26698
1 -1.91373 2.77076 -10.9869
1 -0.648237 -0.687894 -12.6016
1 -2.22643 -7.62138 -9.24376
1 -1.15646 -3.98212 -15.1353
1 -9.15595 3.40015 -7.70639
1 -0.128035 -0.405898 -16.3414
1 5.05119 17.0621 -4.03395
1 -2.25923 3.65927 -8.99119
1 10.3763 6.30217 -12.5217
1 -3.32556 5.78375 -8.93783
1 -0.682596 0.935634 -14.6651
1 2.00992 17.2167 -14.8245
1 -3.59112 -12.1437 -5.14365
1 -0.572317 -17.5877 -6.88708
1 0.847865 -11.4877 -5.08516
1 3.82488 -12.603 -8.28803
1 12.1131 -14.5262 -20.1619
1 -2.66693 -4.32571 -7.25601
1 -2.96503 -9.90921 -5.26483
1 3.79215 -19.3012 -19.491
1 2.65203 -10.6753 -8.27265
1 16.7929 -6.3285 -12.5193
1 -4.7893 2.21123 1.56679
1 -5.12843 2.45886 -4.30523
1 4.40363 -0.649418 1.63035
1 -2.66826 -6.57711 -7.33149
1 -3.31265 4.57357 -10.8269
1 -1.71977 0.531267 -10.7323
1 8.48457 5.32998 4.51291
1 -5.92893 6.26173 -8.57918
1 7.41448 2.18458 6.43242
1 4.06853 2.52952 8.32572
1 0.226612 18.3071 -14.0788
1 -10.6399 19.8366 -13.9336
1 -11.3849 -19.8133 -7.74897
1 -22.7329 -3.3842 5.74243
1 -0.181372 -10.4573 -3.13493
1 -0.681031 -12.1192 -1.43771
1 0.988309 -8.87633 -4.43712
1 3.01476 -8.12272 -5.22939
1 6.33713 -6.48284 -4.17149
1 -16.9892 -12.9267 -8.41945
1 -2.60509 -2.02555 -7.10224
1 -2.03503 -3.05202 -9.04567
1 -20.4785 -15.9584 12.8732
1 -5.60524 7.24966 -4.8564
1 16.5738 5.48593 -11.8596
1 -12.4581 2.2884 -0.916235
1 5.83841 3.64785 7.51168
1 7.799 4.47671 6.75
1 18.1935 -21.0673 -6.17098
1 11.0044 -3.95186 -1.2901
1 -0.920672 3.41518 1.85108
1 -4.355 9.07263 -5.47556
1 -3.1995 -6.72127 -3.32732
1 -0.640121 -9.64175 -5.8131
1 3.14103 -5.54356 -2.20078
1 -2.94827 -7.3532 4.26047
1 -4.45515 -8.92001 0.531537
1 2.06583 -7.13621 -3.2907
1 5.34683 -2.0677 -0.208745
1 -9.1158 2.24148 0.819546
1 -21.8824 -17.264 11.9383
2 -10.6199 0.927414 0.200791
1 -2.79994 5.75868 -5.09442
1 5.12599 -7.81449 -5.68325
1 8.83741 4.66803 2.17268
1 8.6184 1.19911 4.68528
1 -8.13971 5.32987 3.06713
1 -9.16754 -15.2819 11.3518
1 6.62414 5.10128 2.79733
1 -5.99125 5.47439 2.03513
1 -2.33523 -12.9385 1.33205
1 -4.67751 -10.8465 22.9212
1 0.0766073 -5.26171 0.293836
1 8.87919 -1.04079 1.54221
1 5.19138 7.86932 6.52605
2 3.36857 1.60999 2.92694
1 9.85583 -2.74108 0.183885
1 1.93391 0.154411 4.56555
1 8.11768 0.919702 2.22905
2 4.19709 7.75466 -16.7664
1 7.1918 2.94632 2.32569
1 -8.80133 -0.0485805 0.751216
1 5.81208 9.45257 7.9182
1 5.36193 1.51714 6.8192
1 1.44141 21.5722 -0.352995
1 0.684819 -8.12583 3.03935
1 10.1518 -10.0458 23.0604
1 -1.47827 -2.88938 5.37902
1 8.50312 -8.84987 4.08713
1 -3.99161 -7.06444 6.23887
1 -4.97897 -6.23399 4.4098
1 10.0373 -11.9526 21.9981
2 1.08452 0.242703 -13.5761
1 9.05428 -3.05606 2.5796
1 -3.19286 -5.60962 7.77925
1 -1.11099 8.3841 18.6778
1 -0.966662 0.297605 12.2927
1 -2.57923 10.0027 10.4012
1 11.3321 -3.16264 2.37585
1 10.3399 0.510141 2.7348
1 -3.64531 4.41002 1.83396
1 5.66773 15.0486 11.7449
1 2.17949 -4.02655 4.43853
1 -1.9825 -5.77355 5.96066
1 -0.352089 -0.901619 4.60977
1 -3.04579 -11.3738 19.8117
1 0.525771 16.3814 21.1217
1 7.56884 -5.04721 -2.98554
1 -3.52003 6.16129 6.45301
1 -2.02027 4.5771 5.87445
1 -1.81484 -5.18189 -13.2264
1 -1.13005 -9.53639 -13.245
1 11.552 17.0967 -18.972
1 -22.5696 19.7307 -5.24917
1 -2.18482 5.08718 -7.18749
1 2.22193 8.01869 -17.8092
1 -1.0869 4.0867 -5.51228
1 -1.27985 -13.0159 -11.6187
1 -2.38379 -8.97646 -7.25285
1 3.40149 -14.2867 -6.89443
1 8.63013 -6.47764 -4.37746
1 15.4623 -4.95217 -0.683837
1 0.643149 -13.7941 -5.30479
1 6.17897 -9.09561 -7.28258
1 -5.39796 4.38751 -9.59764
1 -7.0717 1.40851 -4.77568
1 -2.07703 -6.38014 -11.1865
1 14.1709 -5.75331 -2.34757
1 15.8235 -5.25607 -10.7095
1 -9.02972 4.17403 -3.66863
1 5.80771 2.40658 -18.8095
1 9.92338 5.34244 6.57493
1 4.01579 8.25243 -19.0634
1 -3.81883 -3.7047 -12.8308
2 7.8307 6.9262 6.54108
1 -4.85295 6.29826 -10.8583
1 1.37082 16.978 -12.7124
1 -2.8866 10.798 -5.95911
1 1.43683 2.58368 4.60883
1 -4.59493 -11.1362 -3.24232
1 10.8366 -6.87473 -3.94515
1 4.38303 18.6332 -5.4148
1 1.72214 -9.63343 -6.39751
1 4.28472 -3.95971 -0.906595
1 -15.2698 -5.52863 -10.252
1 -2.11084 2.38773 -6.69276
1 20.4113 -14.9917 -7.54429
1 -6.83939 6.2072 -6.46015
1 -9.72057 4.65401 -1.50309
1 17.8541 6.14918 -14.4096
1 -8.02853 4.73145 0.0814518
1 -2.80365 8.82466 -1.92897
2 6.12361 6.9568 4.40953
1 0.950335 -3.17357 1.20373
1 21.1695 -8.27019 0.679666
1 6.3897 -9.27363 3.68945
1 -0.919448 -6.97999 1.71031
1 16.3704 -13.8221 0.077728
1 -14.9374 -13.3061 -2.41072
1 -9.99755 -18.4633 -6.77203
1 -0.850357 -14.9252 -3.87894
1 -3.71143 -4.41568 -3.53371
1 -20.6468 -4.47054 5.21473
1 -10.4088 2.55987 -2.18722
1 10.354 -4.81648 3.40163
1 -8.69382 1.18357 -1.29557
1 -0.00351655 5.21071 4.48544
1 -8.87924 1.51283 -3.52085
1 -4.95539 4.71885 -4.06627
2 -7.65458 3.63113 1.94739
1 -9.75469 4.30254 1.82414
1 -7.23534 5.71922 -4.18417
1 9.36794 3.25348 5.61037
1 -2.24983 6.17947 2.06669
1 -4.52778 6.89438 3.24319
1 -2.65756 11.3724 -8.25809
1 -1.06202 -9.14934 1.06798
1 2.84572 -7.80559 3.4016
1 -4.8816 -8.50696 4.74964
1 -0.828367 -6.72031 4.13601
1 -0.379359 -7.50076 -0.423189
1 1.32758 -6.02083 3.28781
1 8.73979 -3.79318 -1.37441
1 23.4149 22.1995 -2.31674
2 -19.9439 -17.7182 10.6816
1 -21.1872 -6.10244 3.64199
1 -4.87084 -1.80828 2.41597
1 -3.24921 3.51407 -4.80016
1 21.6933 -2.35415 -0.946985
1 6.64685 -0.764669 1.37464
1 -5.57723 -1.21854 -2.14806
1 -5.89317 6.64641 -2.62883
1 3.85335 6.42522 5.40139
1 7.84422 -1.1461 3.83372
1 10.8573 1.65933 4.58099
2 3.28136 -2.30244 5.22326
1 2.09226 4.76136 5.61093
1 3.22878 0.690119 7.61113
1 2.97138 -18.9347 12.1969
1 -4.72984 -7.80213 2.54195
1 -0.196047 -4.63488 4.85604
1 0.349618 -8.30652 -2.31286
1 18.5914 8.28277 16.5125
1 -7.60362 7.3718 8.45255
1 -0.302754 3.38928 -7.63522
1 -10.1439 21.892 1.03442
1 8.10417 15.1551 18.9079
1 1.51497 0.296793 2.17752
1 3.76613 4.54903 7.14239
1 5.91721 -5.30792 3.39141
1 8.19782 -5.08308 3.32862
1 -2.57389 2.86928 9.12027
1 7.02617 12.9068 8.85631
1 -1.06759 -15.3366 -12.0896
1 -0.66147 -15.4744 -6.12757
1 -0.591142 -12.6089 -3.64733
1 -3.92161 -10.1632 -1.26808
1 5.25492 -5.07811 -2.80928
1 -3.90045 -12.2426 2.78977
1 -0.869819 -9.74368 -1.09798
1 -1.61516 -8.77027 3.24433
1 2.06143 -9.83761 3.30506
1 5.67932 -11.3841 3.50017
1 -9.12782 2.49853 -5.50704
1 19.8868 -20.2655 -14.6261
2 -21.2678 -14.5419 8.98857
1 -1.73975 -2.84461 -12.9638
1 -2.99033 -7.67681 -5.37373
1 1.96855 -12.4884 -6.85445
1 7.33502 -7.89018 -5.59607
1 -1.16833 -14.451 -9.92441
1 -0.998368 -11.7477 -13.3585
1 1.18528 -6.28977 -1.46877
1 2.09527 -4.45149 -0.315798
1 15.0496 -13.0185 -1.66935
1 7.50456 -3.10694 0.619031
1 13.7971 -7.784 11.6233
1 0.102333 -10.4113 2.6474
1 -0.711164 -4.90024 2.42073
2 -4.0278 4.41457 -22.1366
1 4.85979 1.7635 -16.9664
1 -13.4739 -8.62039 -16.7835
1 -0.0739436 -2.66296 -16.6648
1 -3.09621 -5.43651 -5.3333
1 15.5211 -7.4657 -11.104
1 -13.7368 -6.77976 -6.98047
1 -5.17289 0.134848 -4.024
1 -2.12852 -11.5494 -6.93569
1 -2.79364 0.253984 -7.04227
1 -11.8492 -17.642 -7.53294
1 -2.05031 -10.9206 2.41931
1 -3.93345 -7.80435 -1.3952
1 -2.37685 -11.2901 -2.95543
1 11.6589 -8.66626 -5.02317
1 14.8297 -5.54186 19.5542
1 -3.36098 -2.58743 0.381751
1 -2.53399 -1.58768 2.27165
1 -3.46569 -2.12961 4.37451
1 -3.8652 0.254585 2.14687
1 5.72232 1.20775 2.17594
1 -2.06179 2.59308 6.99711
1 11.0969 -1.14056 1.48941
1 -0.682956 -1.74279 -14.585
1 14.1051 -8.35547 -17.167
1 -1.58306 -8.53947 -11.2842
1 -15.0488 -3.006 -20.571
1 4.43347 -0.0364152 4.01769
1 -7.20567 2.30498 -6.91971
1 -3.30949 1.23621 -5.15872
1 8.28966 8.47212 4.20334
1 6.58351 14.8572 9.72345
1 14.3047 -3.48058 0.863264
1 -6.88138 1.74509 0.441651
1 -4.63367 -4.4694 0.313034
1 -6.59515 6.44996 4.07205
1 -3.44993 -13.599 -6.92773
1 -0.155953 -1.06632 1.68786
1 18.7493 -14.4781 -6.16997
1 1.02347 23.6865 -0.889693
1 -3.52969 -9.14151 19.5253
2 -19.6119 -16.2632 8.80993
1 5.86482 -1.91459 4.85882
2 8.9586 -22.3274 -16.9417
1 -3.16671 8.49638 4.58527
1 2.69249 -4.49737 2.07891
1 -0.605092 -1.1949 7.02133
1 -1.80151 1.50976 -8.71171
1 -2.19628 -4.10958 -11.1943
1 5.92839 2.08645 4.37487
1 2.17402 -0.0373779 -9.20991
1 -3.66579 8.88992 6.73556
1 -11.9542 4.24474 -1.87465
1 22.7809 3.37266 12.8781
1 -20.4153 16.0832 1.03373
1 -2.26743 8.42361 2.55251
1 2.08747 6.19385 3.76168
1 16.9122 15.9203 -23.0877
1 -2.92464 9.94201 -3.87884
1 0.891523 -2.72689 5.75259
1 6.67293 0.0995397 5.53891
1 -4.52331 9.25747 11.2343
1 4.99377 3.39206 2.64777
1 -1.05303 0.873993 8.39067
1 2.06004 17.9803 21.3148
1 -4.46203 8.03959 -9.19572
1 -3.42963 6.04407 -2.98073
1 3.22533 15.9341 -13.3919
1 -6.97739 4.34797 -7.8466
1 8.14824 6.74464 2.85668
1 -8.60035 6.18269 5.00507
1 7.15391 11.0928 7.45503
1 -5.70816 3.93679 0.387924
1 -9.4129 6.76635 7.1138
1 9.58861 -6.81344 3.77279
1 4.16773 -18.441 -17.5038
1 4.07863 18.8274 -3.18289
1 -8.69231 19.4827 -12.8644
1 -2.1864 4.33516 3.54124
1 5.68021 5.67988 6.64941
1 10.0781 22.9698 -5.67432
1 -0.649369 7.96364 1.01111
1 5.75576 12.8537 10.7124
1 4.47551 5.44191 3.46474
1 -7.40537 -1.72945 1.32663
1 -5.69477 -0.0035606 1.14435
1 -14.3241 -7.19336 -9.09303
1 -11.0113 3.61741 0.1749
1 -5.52092 -2.27027 0.0551271
1 -6.79802 -5.0027 3.84549
1 -2.75075 9.8397 12.6419
2 -19.7312 -7.07275 -16.915
1 -5.29206 1.17015 -6.45206
1 -4.11588 8.35239 -11.4589
1 -0.67742 -16.0155 -14.1579
1 -7.02379 0.444297 -2.65955
1 -7.71416 5.51916 -2.00111
1 -6.12647 22.9016 9.82979
1 -14.1531 -7.80827 -5.12029
1 -13.1576 0.272396 -0.476949
1 -4.28819 -9.91671 2.81558
1 -2.77177 2.17872 2.60721
1 -6.06151 8.29103 9.88617
1 -7.07981 7.00592 6.24814
1 -17.9775 18.4148 12.7565
1 -8.22259 -21.3839 10.9513
1 -5.19484 -5.55686 2.18225
1 -6.27722 -3.54147 2.18372
1 -21.0556 -15.7166 10.7101
1 -2.39735 10.1223 8.10599
1 -4.76475 -3.84968 3.88328
1 -4.14211 9.06235 9.01514
1 -8.13841 4.5236 -5.85707
1 -7.02993 -0.410498 -0.643483
1 -1.18052 -10.6786 -11.3243
1 -0.652594 -13.8764 -13.6521
1 -3.3546 7.08937 -7.02567
1 -3.45217 9.95091 -9.81913
1 -1.22379 -12.0649 -9.58744
1 -3.33064 -3.24732 -5.38105
1 1.45645 7.0712 1.54246
1 -5.56636 7.90458 -7.11265
1 -3.8288 -11.1247 0.698773
1 -4.1748 -6.70417 0.568426
1 -0.251153 6.89549 2.97288
1 -6.00042 6.01082 -0.485021
1 -0.574833 -11.4871 0.677153
1 -3.66023 -5.42395 -1.49981
1 3.25418 -2.65933 0.722464
1 -5.5557 7.82231 7.69725
1 -2.11716 6.44241 4.36799
1 -2.72378 8.19848 0.243603
1 -15.0566 -5.27156 -7.97012
1 -0.125606 -2.68824 3.25069
1 -3.12341 4.53377 7.7948
1 -2.46612 0.0856951 3.94601
1 -1.43287 -7.36388 -13.2962
1 -1.81336 -1.78766 -10.9438
1 -0.78233 1.66175 -12.5508
1 -1.30067 -13.6547 -7.8209
1 -1.50413 -6.25245 -15.3172
1 -3.75339 9.50725 -7.58396
2 0.0849043 -11.2085 -7.66826
1 14.2018 -6.23417 -17.445
1 -1.69081 -13.478 -5.54152
1 -3.65522 -8.99957 -3.33219
1 -5.47695 2.57219 -8.24184
1 -3.84538 -0.965164 -5.47344
1 -1.99025 -0.73978 -8.87118
1 -4.28875 8.22629 -3.35725
1 -1.12486 -15.9247 -8.23703
1 -4.53365 -2.28073 -3.77159
1 13.2099 -4.25124 -0.942995
1 -12.9373 -10.4112 -15.5922
1 5.31028 -3.66995 1.42745
1 -4.26597 7.26538 -1.18571
1 4.25528 -9.71924 3.56073
1 4.56342 -3.52279 3.69597
1 0.0365569 3.40975 6.16597
1 1.31658 -18.1105 11.1163
1 -5.0582 -10.5431 20.6487
1 -5.05517 7.63987 5.44536
1 -4.18939 6.33641 0.824898
1 -1.77624 2.40594 4.68005
1 -1.55865 0.575297 6.00858
1 4.92709 -10.4275 -8.68863
1 13.1233 -4.93515 -18.8083
1 1.68177 -0.129407 -11.4539
1 3.93033 -9.17268 -7.02674
1 -1.36516 -8.56515 -3.92489
1 4.03619 -6.45421 -4.07892
1 -2.20379 -5.2108 0.500721
1 0.151888 -0.736399 -9.95369
1 -15.9942 19.6188 7.20266
1 1.12905 2.51422 2.24896
1 6.30336 15.8216 -5.4931
1 -4.38796 -3.21274 -1.73416
1 4.62511 -0.54286 6.28163
1 -1.34495 -3.10064 1.08573
1 5.90075 10.9763 9.62208
1 9.86386 -5.09212 -3.01311
1 3.66325 -5.78011 3.75693
1 -7.99135 23.2666 8.67947
1 -1.93519 1.28055 10.5869
1 1.13335 -0.0812627 8.58354
1 3.74505 -11.6237 -10.1772
1 2.23783 2.86472 6.82285
1 9.35575 6.60843 -14.387
1 9.61116 -8.19563 -5.52294
1 0.928126 4.92525 2.03386
1 -0.673521 1.05897 2.84318
1 -2.32357 -5.33098 -9.22448
1 9.42235 2.62324 2.93572
1 5.07683 -2.65377 -2.61215
1 -3.12428 -9.90312 21.5447
1 0.766083 1.02773 6.58865
1 2.85096 3.90037 2.94592
1 7.24726 -7.11228 3.8532
2 2.30223 -1.73241 2.81569
1 0.113694 0.356635 10.4137
1 5.05172 -7.48691 3.64447
1 1.91548 -2.10818 -10.1702
1 8.34377 -8.71827 -7.39217
1 12.0371 -5.4281 -2.5474
1 12.3027 -2.51785 0.279031
1 6.81606 -3.2337 3.19989
1 6.56771 -3.85385 -1.43204
1 7.18736 9.50791 6.0065
1 22.4814 -0.885439 -2.86516
1 2.06858 -1.02581 6.79224
451
 Atoms. Timestep: 8200
1 -1.94991 -9.99115 -9.42023
1 -2.0446 2.64848 -11.1598
1 -0.692351 -0.7557 -12.6679
1 -2.40868 -7.58843 -9.31977
1 -1.01447 -3.98542 -14.9112
1 -8.92745 3.05191 -7.64409
1 0.395139 -0.475527 -16.3497
1 5.04902 16.877 -3.98449
1 -1.93105 3.7279 -9.15325
1 10.6281 6.22884 -12.5194
1 -3.42423 5.60666 -8.90775
1 -0.898794 0.86864 -14.9165
1 1.75239 16.8868 -14.3744
1 -3.57442 -12.0893 -5.27607
1 -0.307103 -17.4448 -6.81815
1 0.520351 -11.0269 -5.08283
1 3.74876 -12.6612 -7.69685
1 12.8328 -14.3648 -20.2754
1 -3.18655 -4.20455 -7.32616
1 -2.83631 -9.94187 -5.333
1 3.72137 -19.2912 -19.3203
1 2.91601 -10.5863 -8.13918
1 16.7595 -6.6461 -12.4276
1 -4.90782 1.99168 1.89861
1 -5.09521 2.62439 -4.44078
1 4.31648 -0.564665 1.19511
1 -2.90955 -6.47829 -7.44773
1 -3.48063 4.25887 -10.7911
1 -1.25153 0.508089 -10.8428
1 8.17407 5.35395 4.57733
1 -5.75746 6.18017 -8.49722
1 7.3047 2.08757 5.9654
1 4.02381 2.65139 8.29707
1 0.238274 18.2068 -13.4467
1 -10.269 20.0988 -13.7739
1 -11.7687 -20.0011 -7.76256
1 -22.1967 -3.27497 5.15131
1 -0.120107 -10.0705 -3.10189
1 -0.423086 -11.7488 -1.48506
1 0.974673 -8.57653 -4.43472
1 2.97219 -7.88985 -5.10345
1 6.43432 -6.26457 -4.25459
1 -16.1995 -13.0522 -8.06268
1 -3.1213 -1.87926 -7.29267
1 -2.31311 -2.96949 -9.16421
1 -19.9693 -15.9356 12.7816
1 -5.42232 7.16173 -4.79296
1 17.5683 4.69206 -12.4277
1 -12.5572 2.65714 -0.935952
1 5.94524 3.34193 7.42295
1 7.65269 4.46488 6.65585
1 18.2255 -20.8012 -5.89301
1 11.1179 -4.16323 -1.20412
1 -1.09413 3.43581 1.9506
1 -3.71621 8.66129 -5.3375
1 -3.10125 -6.59314 -3.40935
1 -0.645645 -9.3038 -6.00211
1 3.14934 -5.34392 -2.1479
1 -3.23322 -7.1397 4.29434
1 -4.30204 -8.90296 0.363355
1 2.12117 -6.98183 -3.20889
1 5.31398 -1.97542 -0.221458
1 -9.3131 2.30688 0.93609
1 -21.8817 -17.0533 12.0926
2 -10.9357 1.22659 0.206602
1 -2.46397 5.9019 -5.20275
1 5.28874 -7.63441 -5.57703
1 8.47144 4.69452 2.33054
1 8.56999 0.94619 4.45675
1 -8.24224 5.40792 3.20764
1 -9.53537 -15.1986 11.4335
1 6.29827 5.2003 2.97307
1 -5.98134 5.56574 2.25674
1 -2.66619 -12.8509 1.20904
1 -5.00606 -10.415 23.0408
1 0.00218729 -5.05291 0.358707
1 8.95247 -0.97769 1.40735
1 5.07833 7.76152 6.80116
2 3.25331 1.75186 2.38614
1 10.0253 -2.78144 0.237578
1 2.19332 0.529126 4.26911
1 7.90822 0.904897 2.18411
2 4.62051 6.91531 -17.2204
1 6.91677 2.96658 2.65276
1 -8.89141 0.032056 0.759216
1 5.59311 9.36501 8.12965
1 5.42783 1.21476 6.90813
1 1.11378 21.304 -0.465557
1 0.496833 -8.42248 3.30705
1 10.5817 -9.99581 23.5043
1 -1.67855 -1.76879 5.34006
1 8.53776 -9.06397 4.0041
1 -4.32586 -6.66062 6.21976
1 -5.43887 -6.1519 4.29457
1 9.89057 -11.2747 21.8251
2 0.65612 0.0462647 -13.8187
1 8.99705 -3.15848 2.91489
1 -3.20283 -5.80906 7.91249
1 -2.14098 9.22151 18.5316
1 -0.660389 -0.0757225 12.2706
1 -2.67748 10.4866 10.2442
1 11.1205 -3.36516 2.11087
1 10.11 0.418124 2.75317
1 -3.37121 4.05947 1.77575
1 5.26396 15.3588 10.7076
1 1.9721 -4.07562 4.31407
1 -2.24799 -5.61138 5.85196
1 0.0752661 -0.435173 4.52668
1 -3.08669 -11.6154 20.0182
1 1.16516 16.1159 20.3686
1 7.70025 -4.97863 -2.76379
1 -3.35179 6.23421 7.25455
1 -2.17941 4.57707 6.22882
1 -1.59674 -5.20971 -13.1607
1 -1.23298 -9.50949 -13.2132
1 11.6065 17.8123 -18.495
1 -22.3969 20.0411 -4.99617
1 -1.91995 4.97616 -7.20325
1 2.51129 7.51821 -17.5704
1 -0.778781 3.9896 -5.46054
1 -0.888251 -13.1338 -11.779
1 -2.33857 -8.88817 -7.50443
1 2.50285 -14.0827 -6.31247
1 8.66602 -6.24497 -4.3527
1 15.6183 -4.70604 -1.12254
1 0.59329 -13.5011 -5.22134
1 6.27257 -9.07702 -6.98224
1 -5.42184 4.22007 -9.58647
1 -7.03785 1.27139 -4.56116
1 -2.04685 -6.31463 -11.2689
1 14.2555 -6.02846 -2.42024
1 16.2257 -6.13571 -10.4302
1 -8.99623 4.09671 -3.58389
1 5.34165 2.21943 -19.0216
1 9.81639 5.31776 6.3222
1 4.03676 8.07987 -19.1188
1 -3.50613 -3.77187 -12.9216
2 7.97991 6.9677 6.28854
1 -4.83555 6.16703 -10.7168
1 1.51171 17.0953 -12.122
1 -2.87978 10.808 -5.75066
1 1.8351 2.84919 4.48253
1 -4.23685 -10.9452 -3.46948
1 11.0248 -6.66015 -4.26493
1 5.51067 18.11 -5.75372
1 1.87256 -9.568 -6.427
1 4.36777 -3.94769 -0.836678
1 -15.3559 -5.62312 -10.4351
1 -2.20949 2.6394 -6.85409
1 19.8514 -14.4491 -8.39517
1 -6.72401 6.13731 -6.47109
1 -9.49772 4.81435 -1.40304
1 17.2742 6.57337 -13.8955
1 -7.58114 4.61967 0.0753658
1 -2.58335 8.9445 -1.75617
2 5.86152 7.32671 4.58249
1 0.939062 -3.27681 1.29409
1 21.8729 -7.62565 0.439725
1 6.37951 -9.38601 3.72357
1 -0.681455 -6.8654 1.93842
1 16.4886 -13.9242 -0.63719
1 -15.1708 -13.4457 -2.20431
1 -10.6435 -18.178 -7.11986
1 -0.845992 -14.7611 -3.9345
1 -3.71725 -4.2091 -3.54852
1 -20.3061 -4.34957 4.74967
1 -10.4882 2.71447 -2.01257
1 10.2313 -5.01507 3.28657
1 -8.84159 1.15911 -1.18299
1 -0.218184 5.54316 5.12565
1 -8.94344 1.73581 -3.33159
1 -5.03451 4.838 -4.33605
2 -7.28224 3.48431 2.0341
1 -9.51648 4.45452 1.70745
1 -7.2711 5.68551 -4.20235
1 9.28922 3.29282 5.23588
1 -1.68367 5.66642 1.4741
1 -4.66826 7.09175 3.31553