351
 Atoms. Timestep: 8000
1 6.90361 -8.5315 -7.16572
1 5.40968 -4.04184 -3.3449
1 -11.0491 7.06294 -18.9635
1 -7.6689 5.68717 -16.0462
1 2.72244 4.47273 -11.9837
1 5.82613 3.15139 -12.0058
1 -9.73016 6.93467 -17.0268
1 2.28061 9.23277 -12.4847
1 -12.9842 -14.9564 -18.2297
1 -14.5793 -14.0127 -17.017
1 -6.62544 -6.69709 -5.85497
1 5.61589 -7.26157 0.744634
1 9.17335 -5.8491 -2.19279
1 3.7758 -1.99339 4.35514
1 17.6985 18.0593 -6.47141
1 9.23016 -5.38944 -0.00973981
1 -23.0892 10.0898 -11.0035
1 -6.81057 -3.39538 -6.1031
1 0.521826 -2.6685 -1.09245
1 8.40502 -2.219 -4.62914
1 -14.9674 -14.7253 -19.0964
1 2.80152 10.9982 -14.1196
1 13.6013 -14.0389 1.39213
1 -5.21079 -7.30905 -7.4079
1 -8.12756 -5.20495 -6.45508
1 2.71188 -7.05553 -7.37141
1 0.619265 -7.77699 -7.79082
1 4.1647 -4.92976 -7.62816
1 4.83789 -15.7712 9.80945
1 5.07138 -8.7428 -1.13022
1 5.69635 -4.11362 4.74933
1 -1.33475 -5.45803 -2.78387
1 -15.0929 11.061 -11.8956
1 -3.0636 11.6087 -3.60097
1 -4.18726 13.4991 -3.15873
1 -1.45775 10.1471 -4.23494
1 -11.6643 -11.1344 -2.37892
1 14.0729 -15.5402 -0.224884
1 -13.4102 -2.97858 -16.7941
1 2.95886 -5.14377 -2.01148
1 7.35202 -7.97045 2.80193
1 11.3294 -1.87169 -1.28853
1 3.18829 -7.4909 4.99271
1 4.19611 -0.173795 -2.62947
1 2.05759 -4.24597 -4.01617
1 0.830744 -1.39828 2.85653
1 3.88092 -1.94615 -4.14878
1 -13.0373 15.9626 -3.53589
1 -4.14846 13.4219 1.08099
1 8.30033 -9.31715 1.11554
1 12.6536 -16.1154 1.31298
1 -5.34041 -5.57642 3.09496
1 -0.798129 -7.66227 -5.86693
1 5.98418 -9.42609 0.894921
1 5.46426 -2.69829 2.66651
1 13.9833 -9.51539 5.19667
1 9.43712 -7.55469 3.90046
1 4.67205 -8.85231 2.78973
1 3.36792 -8.84838 -5.93983
1 23.6663 -5.21341 2.58454
1 1.09442 -0.970945 0.488989
1 3.61968 -1.39999 1.92943
1 6.74276 -0.849253 -3.51233
1 -10.6885 9.46466 6.0052
1 -5.3218 4.3515 9.16212
1 0.41465 -2.97126 1.30771
1 -3.25072 15.3633 2.29487
1 0.178784 14.7577 0.483071
1 13.1876 19.9183 -2.05719
1 5.01314 18.5328 8.21604
1 -0.938544 -8.88902 6.14706
1 -0.226326 -6.78433 5.94106
1 0.208479 -7.74492 2.79898
1 3.96513 -5.65545 7.78852
1 8.9582 -3.36714 4.26875
1 8.66872 -1.09154 4.02494
1 -7.45601 5.0679 8.70274
1 11.2747 18.9038 -2.37538
1 0.657698 -3.53069 3.73688
1 2.62899 -7.5897 2.82421
1 6.9718 -0.709524 2.21775
1 19.8155 2.76721 11.0655
1 -2.74317 17.9951 10.7189
1 12.6216 19.2188 2.91198
1 12.6629 19.2617 -4.10616
1 5.78041 22.1222 8.79522
1 2.02252 -5.97164 6.51965
1 1.60225 -1.83218 5.22054
1 3.53237 1.03771 16.0278
1 4.32075 -3.25617 16.6051
1 -9.80352 10.4482 7.82163
1 11.8721 14.4963 17.9288
1 -16.6661 -13.8724 -17.8903
1 3.66379 -18.0892 -15.9649
1 6.30632 -5.49263 -8.70205
1 -12.546 -3.00928 -18.8412
2 5.0019 -7.21765 -6.81951
1 16.7648 12.5301 -16.6643
1 -9.13038 8.2827 -18.7124
1 6.38424 4.1221 -9.9018
1 -3.94005 2.97813 -16.3905
2 4.94822 10.9974 -14.8449
1 -1.45483 -8.14717 -8.22149
1 6.726 -7.674 -4.72781
2 -2.37501 -6.38548 -4.71116
1 2.86337 -7.39085 -1.03865
1 -3.10819 -7.93515 -6.63054
1 10.1662 -3.27375 -7.63967
1 8.06874 -7.84594 -2.78974
1 7.12854 -5.56267 0.751304
1 4.03458 3.61483 -10.5636
1 4.87401 11.1062 -12.5367
1 0.693954 10.3568 -13.721
1 8.48003 3.82488 -9.03277
1 6.15713 -9.15837 -2.97001
1 8.91426 -22.9818 -19.7211
1 1.47738 -7.09513 -5.575
1 -14.0489 -3.06753 -14.6996
1 -0.28762 4.70946 -14.5708
1 10.8525 -2.55216 -3.35334
1 -15.0335 4.75441 -0.18824
1 -13.678 6.35821 -4.18078
1 -11.8052 5.155 -4.84165
1 -13.8569 5.74278 1.54464
1 8.55515 -4.67388 -8.3649
1 7.37239 -6.20205 -6.59284
1 10.5428 22.9139 -14.9542
1 -13.1767 6.05253 -6.35689
1 0.671998 6.67709 -15.3049
1 4.83093 -2.2449 -2.02987
1 10.6844 -2.94403 -5.67928
1 -1.35884 6.18324 -15.9879
1 -0.973372 -4.39168 -0.819155
1 1.68424 -2.48014 -5.36004
1 1.49883 -4.50677 -0.317887
1 16.2064 14.2099 -7.8376
1 -11.8371 8.23061 4.53919
1 -2.26781 14.4484 0.325631
1 -0.159424 13.5447 -1.3448
1 -0.455048 -9.91016 8.02194
1 12.4762 -10.9516 4.54124
1 -4.75863 -8.59018 7.10358
1 4.81378 -2.55293 6.38389
1 21.9504 -4.73957 1.30873
1 -17.8525 -15.5794 10.8546
1 3.20854 -5.76924 0.761332
1 -6.92395 0.919133 10.225
1 2.02415 -0.885158 -1.92987
1 8.23184 -1.7036 -0.0246712
1 7.91082 -6.94016 -8.80061
1 -0.956538 14.9473 2.3002
1 -1.46881 -8.20505 4.14935
1 5.09039 -9.44183 5.1961
1 1.77944 -5.90445 4.42002
1 0.746828 -8.13117 7.26268
1 -3.34701 9.58644 22.0397
1 6.81464 -5.28152 3.1401
1 20.1505 -1.51941 19.5
1 -12.7205 -5.28209 9.21222
1 3.64561 -1.23817 -0.370261
2 7.57515 -2.9834 1.85864
1 -20.8642 2.55668 12.4624
1 9.9916 -1.85753 2.59107
1 -10.7614 3.02942 10.9316
1 15.7402 16.7908 9.4794
1 -13.4157 9.17657 3.33949
1 1.85364 5.14531 15.0238
1 15.5606 -22.6104 8.74871
1 7.21658 -2.93632 6.12613
1 -6.76319 2.22969 12.0574
1 -21.4235 6.35196 19.7816
1 19.7315 -17.1695 17.6759
1 5.1128 0.198259 0.91556
1 -18.9774 8.03303 11.3354
1 -22.4834 -12.1464 -21.5132
1 2.08299 -6.67115 -3.45547
1 5.00816 -5.25001 1.76806
1 -3.31659 -8.88874 5.38631
1 -2.69498 -9.66966 7.40585
1 -2.09336 -8.39895 -10.2864
1 0.11696 -8.96637 -9.71205
1 7.45423 -4.05832 -4.25641
1 -0.554579 -7.23426 0.557899
1 14.676 -10.4169 -15.9374
1 -4.47271 -21.1378 -1.45394
1 5.474 -9.4913 -4.98321
1 12.9552 -12.4124 2.77504
1 1.74066 -9.73308 8.30991
1 -12.3724 -3.4334 19.6858
1 7.2151 -7.79594 5.10855
1 -3.85263 -7.57886 3.50329
1 3.55914 -2.51696 14.527
1 9.10706 -7.72556 -0.892749
1 -0.0733399 -6.51545 -4.04428
2 4.85188 -6.7486 -2.58191
1 11.9799 -1.75389 -7.26587
1 -16.5834 -14.0942 11.8497
1 -20.5101 -2.59475 -10.552
1 7.00084 -2.64107 -2.0367
1 3.86119 -8.82193 0.672593
1 9.95573 -3.74182 -1.72793
1 -22.2162 0.535853 2.94369
1 7.172 -11.3155 2.04596
1 7.34815 -9.36416 -1.18229
2 4.94499 -7.90888 6.34298
1 5.91851 -2.54221 0.365151
1 0.485565 -6.03287 21.1836
1 -0.997305 -9.56198 -11.7816
2 -12.5467 -1.36632 -15.1389
1 0.618665 -6.06824 -1.84787
1 -4.83535 -7.06323 5.29533
1 8.25806 -6.15796 -4.28615
1 9.09799 -1.55185 -2.46883
1 -14.5284 8.00637 1.79006
1 -13.5294 -1.75204 -12.9763
1 -11.764 -13.1259 -1.52953
1 -17.9812 9.86838 10.6421
1 4.114 -1.05524 16.1159
1 10.4324 -0.952244 0.619367
1 7.44576 0.599917 0.443119
1 -4.28151 17.0853 12.0031
1 -5.62392 6.70204 -16.2936
1 -0.753599 -3.34716 -23.4968
1 -6.50574 -5.55028 -7.82443
1 4.85665 5.37492 -11.6701
1 -2.08919 4.07928 -15.7615
1 3.46186 -5.83003 -5.37589
1 5.70402 -2.47696 -5.47218
1 -12.5532 10.3158 5.03656
1 -0.583102 8.60839 13.748
1 -2.94083 11.4813 1.20833
1 -8.80755 2.12448 10.9452
1 1.43169 5.48977 12.8315
1 12.0036 3.4782 18.7519
1 10.1011 -4.40509 17.3641
1 2.50934 3.19793 15.5902
1 -22.1002 -3.0555 -9.10749
1 1.65979 9.47739 -15.4838
1 -16.9795 12.2423 -11.9291
1 -13.9122 14.1217 -4.30443
1 0.93198 -5.63977 2.11626
1 22.1133 9.90557 19.6017
1 -4.67168 12.262 -4.9184
1 -11.3263 15.6894 -2.18428
1 -2.49483 9.54704 0.0677518
1 -3.34455 3.62936 9.65129
1 6.29596 10.4545 13.4732
2 -0.307132 6.86739 12.2187
1 7.39447 11.3258 11.7893
1 -0.0324654 9.49221 -5.71566
1 -2.28481 9.99246 -2.0918
1 -0.880039 12.8129 1.50658
1 -1.23647 11.5481 -0.521381
1 6.32159 20.2503 7.75957
2 -20.012 -3.2333 -8.41466
1 -12.8556 5.51031 -0.465804
1 -22.6912 2.58144 13.6539
1 -18.3704 -3.45901 8.46901
1 -14.3766 -13.6774 21.4473
1 -12.9359 7.0002 3.05137
1 -12.0625 -3.47762 8.12361
1 -14.4899 6.13076 -2.13536
1 -8.24619 15.9294 -12.3674
1 -11.6838 11.2809 6.7916
1 -5.41943 -6.51824 -9.4728
1 -11.7519 -1.5713 -17.3541
2 -10.2727 13.0649 -22.0955
1 -12.3363 -12.7886 -3.67873
1 -9.70559 5.88571 -15.1414
1 3.42929 -0.333605 14.203
1 -16.592 10.8639 -10.2787
1 -13.4571 -0.545836 4.6814
1 -14.5622 7.33646 -0.226179
1 1.10753 -2.25166 -3.35241
1 -17.7478 6.22919 11.2455
1 -3.71843 -5.69832 1.56491
1 -9.32663 3.94258 9.5645
2 -12.312 5.05969 -2.51054
1 -2.09422 -7.71246 1.98697
1 -7.14507 3.31427 9.98284
1 -3.45051 -7.53034 -8.73244
1 -4.01931 -7.55606 -10.7452
1 -2.76214 -8.37871 -12.4583
1 -3.59634 5.61278 -16.4799
1 1.5001 5.5716 -13.4257
1 -5.67013 4.54507 -15.8893
1 -4.1932 14.2462 -1.10706
1 -11.6959 4.4964 -6.98688
1 9.24139 -4.77274 -6.23738
1 -2.40443 13.1668 -1.86919
1 15.5474 -8.73774 3.79044
1 0.609384 -4.4778 5.74501
1 0.686553 -3.83812 21.3095
1 -1.74862 -9.58055 -13.8999
1 3.16367 6.59488 -12.2247
1 2.21308 7.65498 -14.2249
1 -7.46421 7.68537 -17.201
2 4.45118 8.72626 -13.3477
1 -7.31744 -15.8528 -23.2519
1 5.82328 -3.47063 -7.65251
1 0.633708 11.0148 -4.25094
1 3.01218 -1.81589 7.07176
1 -6.33609 -20.5384 -13.1573
1 3.92549 -3.30461 -6.19715
1 -0.756728 11.8743 -2.74696
1 15.1101 16.0874 -8.11051
1 -2.03727 15.7283 4.12576
1 -4.66688 15.6298 0.571215
1 -0.922185 10.3782 1.52677
1 3.1058 -8.02066 7.72386
1 -5.0727 2.53305 10.5398
1 1.58135 -7.43417 0.869457
1 2.88902 0.588957 0.715565
1 3.22622 1.89889 13.819
1 0.760102 7.04972 14.2682
1 14.4863 -10.2388 -13.7514
1 9.43258 -10.5534 -16.0909
1 4.14532 12.8294 -13.8083
1 5.28127 -6.78242 4.19841
1 6.06784 9.86248 -11.1041
1 3.91268 9.40295 -11.0148
1 2.8323 -3.93479 6.28508
1 11.0395 12.3449 -8.18607
1 1.86804 14.3381 -0.949839
1 15.1945 -13.6418 -0.178355
1 6.16196 -10.4312 3.48519
1 6.88552 -6.54728 -1.41256
1 3.90314 -10.2661 7.19308
1 10.4694 -5.56261 4.5023
1 7.99542 2.49992 -10.7641
1 5.67029 -5.42663 -5.14601
1 17.1789 16.1392 -7.41698
1 2.64533 3.90336 13.3872
1 14.4399 -12.0232 1.08327
1 11.9367 -14.4404 2.77975
1 9.12606 -7.29078 1.28906
1 15.8162 14.6089 9.77834
1 7.92041 -5.06167 5.31618
1 2.09655 1.00101 -3.11963
1 6.05167 -5.64577 6.49718
1 4.43683 -4.52018 14.7146
1 12.767 14.4263 15.8877
1 9.89988 -4.55391 -4.08393
1 2.69349 -3.02167 -1.44763
1 5.33501 -4.49175 -1.08715
1 9.84716 -3.20005 0.389358
2 14.2331 -10.4523 2.90044
2 2.96183 -3.12916 2.06605
1 6.32777 -1.33236 4.48553
2 9.29937 -5.09357 2.41596
1 7.90898 0.0890031 -1.90311
347
 Atoms. Timestep: 8500
1 7.2874 -8.93024 -7.10371
1 4.23812 -4.32361 -3.53354
1 -11.5912 7.75307 -15.8206
1 -7.96613 5.62404 -16.9011
1 2.4515 4.54895 -12.178
1 6.27168 3.10065 -9.97135
1 -9.88016 6.6598 -16.5799
1 1.96903 9.09756 -12.3009
1 -12.5726 -14.1756 -17.3431
1 -14.1715 -12.6098 -16.979
1 -5.99268 -5.03738 -5.81117
1 5.50209 -6.6568 0.111868
1 9.4475 -5.80697 -2.37959
1 3.45963 -1.75608 4.74621
1 19.6244 17.6679 -6.48534
1 9.63782 -5.3883 -0.0840561
1 -23.4116 10.4993 -10.9656
1 -8.9343 -5.53757 -8.20468
1 0.991668 -2.69285 -0.898408
1 8.09295 -2.84136 -4.53093
1 -14.3444 -14.1927 -18.5683
1 2.86256 9.54245 -14.489
1 13.3824 -14.3942 0.0903908
1 -4.65635 -5.91551 -7.25733
1 -8.20597 -5.02588 -6.2002
1 2.5401 -7.3684 -9.10689
1 1.12701 -7.54175 -7.48867
1 4.40712 -6.17749 -8.93955
1 5.56609 -13.4706 8.05885
1 4.77883 -8.82804 -0.742
1 5.2759 -4.45467 3.90956
1 -1.27477 -6.34628 -2.16699
1 -15.6717 10.4957 -11.5763
1 -2.92859 11.7577 -3.15683
1 -4.24715 13.761 -2.82835
1 -1.27257 10.266 -3.57737
1 -10.3873 -10.6082 -1.41172
1 14.4564 -15.904 -1.22052
1 -12.8811 -2.27099 -17.1019
1 3.13872 -5.13289 -1.65195
1 7.97636 -8.45886 2.88214
1 10.611 -1.61407 -1.27958
1 2.89408 -8.61915 4.81075
1 4.57502 -0.2665 -2.59582
1 1.97256 -5.00262 -4.10426
1 0.882123 -3.79336 1.05012
1 4.18491 -1.90276 -4.26897
1 -12.7906 16.1339 -3.46111
1 -4.82754 13.4634 1.49659
1 8.48157 -9.05796 0.626358
1 12.4205 -16.4585 -0.218491
1 -5.94068 -8.46131 2.979
1 -0.506572 -7.02462 -6.02798
1 6.11992 -9.04646 1.2503
1 4.692 -2.13858 2.83651
1 12.8512 -9.89015 3.81289
1 8.4211 -6.48225 4.02687
1 4.58275 -8.36686 3.10931
1 3.3273 -7.25496 -7.09134
1 22.1878 -4.23596 1.27803
1 1.70546 -1.6154 1.08613
1 2.7661 -0.67004 2.80192
1 6.44987 -1.56983 -3.56027
1 -11.812 9.18709 6.34166
1 -4.98066 4.71783 8.74369
1 -0.863292 -5.31386 1.72872
1 -3.97615 15.6324 1.52457
1 0.054847 15.1714 0.987766
1 14.0651 20.0174 -2.3636
1 5.31969 20.1815 10.2976
1 -0.893049 -8.55638 6.08781
1 0.652059 -8.24627 4.47795
1 -0.141165 -7.64572 2.22187
1 4.1612 -5.45277 7.58252
1 9.36352 -2.91628 4.17105
1 7.91218 -1.35119 4.29799
1 -7.10778 5.07085 7.85511
1 11.9361 19.7259 -2.66511
1 0.0686129 -3.94431 3.29237
1 2.18945 -8.12527 2.64461
1 6.12564 -0.256219 3.38255
1 18.7827 2.88043 9.55301
1 -4.66935 18.3147 12.7394
1 15.0188 20.7318 2.2227
1 13.4241 18.346 -3.63725
1 6.6098 21.6309 11.3425
1 1.80918 -4.89834 7.25735
1 1.4084 -2.05923 3.8041
1 3.92086 1.42148 15.6789
1 5.41952 -2.68087 16.6043
1 -10.9766 10.0612 8.10113
1 12.379 15.7737 16.8246
1 -15.6543 -12.3945 -18.4695
1 4.61764 -16.9694 -13.6557
1 6.6326 -5.72037 -8.72715
1 -12.8575 -2.71447 -19.335
2 5.57561 -7.27061 -6.95276
1 15.3536 14.2457 -17.2793
1 -9.88372 8.95253 -16.6718
1 6.02754 5.24706 -10.4361
1 -4.26964 3.22285 -16.5623
2 4.31148 8.29165 -15.4152
1 -1.04345 -7.1179 -8.14829
1 6.66885 -7.93648 -4.872
2 -1.73226 -6.03498 -4.27146
1 2.97952 -7.42409 -1.05056
1 -2.59628 -6.41957 -6.60901
1 9.9635 -3.54863 -7.69927
1 7.8264 -7.57935 -2.92442
1 7.21042 -5.03568 0.837872
1 4.24397 3.69627 -10.7607
1 5.18048 8.68812 -13.1607
1 1.28417 10.8627 -13.5217
1 7.79527 6.67865 -10.5283
1 5.58507 -8.86866 -3.08647
1 1.84456 -7.28002 -5.47134
1 -12.7926 -1.31946 -15.0981
1 -0.54405 4.87118 -14.8893
1 10.5248 -2.10539 -3.36656
1 -15.1767 5.74425 -0.32875
1 -15.0715 5.04121 -4.66614
1 -13.5442 3.95611 -5.99114
1 -13.0164 6.26818 0.445843
1 8.75392 -5.26055 -8.47787
1 8.00886 -6.67622 -6.67324
1 12.4186 20.5391 -15.4933
1 -15.5411 4.47557 -6.90895
1 -0.0306023 6.93159 -15.2909
1 4.86104 -2.54244 -1.79206
1 10.178 -2.61695 -5.54178
1 -2.00064 6.20587 -15.7946
1 -0.316345 -4.64499 -0.857891
1 1.80838 -2.65574 -4.64167
1 3.26139 -3.31277 -0.0133941
1 16.851 15.8826 -8.2554
1 -12.2339 8.42741 4.28565
1 -2.01019 14.8734 0.076195
1 -0.0410759 13.7887 -0.837692
1 -0.0611001 -9.04017 8.23442
1 11.5019 -11.2821 2.8386
1 -4.60877 -8.73816 7.28717
1 4.61163 -1.57541 6.73203
1 20.4567 -4.32065 -0.0748082
1 -16.7443 -14.9066 12.3996
1 3.15118 -5.57433 0.752218
1 -6.35699 1.44598 10.4451
1 2.94341 -1.13896 -0.97868
1 8.48218 -1.30615 0.116484
1 7.97202 -7.4632 -8.83006
1 -1.69573 15.8737 2.12818
1 -1.58954 -8.21443 3.99969
1 4.98864 -9.44383 5.16773
1 1.93481 -6.49228 5.35987
1 1.42001 -8.5254 6.55104
1 -4.76885 11.2191 20.6343
1 6.16886 -6.32824 2.64048
1 20.5658 -1.2704 18.5418
1 -12.9505 -4.41067 8.01667
1 4.90101 0.353968 -0.372043
2 7.28189 -2.91842 2.2984
1 -18.9918 2.51487 13.0246
1 9.2389 -1.53909 2.3679
1 -10.481 2.67107 9.46071
1 18.4535 16.3017 8.51198
1 -12.892 9.7019 2.542
1 1.77244 5.30341 14.9127
1 5.93893 -2.56101 5.16785
1 -6.98327 3.06431 11.8219
1 -19.0188 8.09117 20.8188
1 20.9024 -16.9211 18.2694
1 4.682 0.354381 1.95452
1 -17.9537 9.76884 9.8846
1 -21.0855 -13.2865 -18.634
1 2.44302 -7.21869 -3.25957
1 5.14631 -4.25617 1.69231
1 -3.18459 -8.44017 5.61539
1 -2.4012 -8.81554 7.70771
1 -1.67697 -7.8961 -10.1103
1 0.461794 -7.70754 -9.76413
1 6.62838 -4.16104 -3.15711
1 -0.832444 -6.77915 -0.00493938
1 13.8694 -11.6486 -13.1808
1 -3.91106 -17.7739 0.166751
1 4.14041 -8.06348 -4.71508
1 12.446 -12.8781 1.44357
1 2.15943 -9.31962 8.57201
1 -11.3638 -3.66909 20.2226
1 6.67213 -7.83111 4.60637
1 -3.83869 -8.10431 3.5497
1 5.04265 -1.97964 14.4354
1 8.88455 -7.39368 -0.814696
1 0.28026 -6.7698 -3.97827
2 5.06252 -6.56083 -2.61394
1 10.8025 -1.5302 -7.33158
1 -17.6369 -15.2973 14.4452
1 -21.9267 -4.24538 -11.2856
1 7.38859 -3.2946 -0.860686
1 3.74581 -7.91572 1.01086
1 10.2736 -3.888 -1.67503
1 -22.2188 0.0259948 1.65299
1 7.52045 -10.7089 1.91431
1 6.92411 -8.94648 -1.14096
2 4.75168 -6.82905 5.48921
1 5.53936 -2.12969 0.488066
1 -2.00669 -6.19449 18.425
1 -0.230478 -8.44735 -11.7728
2 -10.8572 -2.31653 -15.9267
1 0.839381 -6.64082 -1.70846
1 -5.3458 -8.51905 5.1831
1 8.67022 -6.23608 -4.5341
1 8.52085 -1.69381 -2.39134
1 -13.343 8.63495 0.569443
1 -11.0595 -1.53226 -13.7385
1 -11.6299 -12.5297 -1.2504
1 -16.884 11.4242 11.028
1 4.66194 -0.610458 16.1574
1 10.7193 -0.930621 0.83627
1 6.80053 -0.368131 1.22369
1 -4.7265 16.559 11.4286
1 -6.02136 6.75357 -17.1961
1 -3.69214 -4.78524 -21.7815
1 -6.79501 -5.8869 -7.81162
1 4.01793 5.89481 -11.2334
1 -2.54516 3.98654 -15.4896
1 3.94149 -5.85483 -5.31466
1 6.05731 -3.18577 -5.29941
1 -12.3092 10.6129 4.54078
1 0.327125 9.18592 13.4229
1 -3.23145 11.9682 1.86701
1 -8.51363 2.41274 10.416
1 2.33863 6.1312 12.8095
1 11.5617 4.28433 19.8594
1 6.69837 -5.14234 16.5349
1 2.94096 3.38687 15.3037
1 -23.5095 -3.81596 -9.72375
1 0.590859 8.80779 -14.1647
1 -17.7839 11.0282 -11.5912
1 -12.8105 13.9234 -3.10543
1 1.34201 -5.8296 2.52028
1 20.5534 8.84412 19.3432
1 -4.58854 12.4956 -4.50248
1 -12.2205 15.3949 -1.43057
1 -2.29032 10.1465 0.726912
1 -3.17744 4.37348 9.99807
1 4.63008 9.01244 12.5796
2 2.56556 8.53877 13.0964
1 3.49485 10.8505 12.3131
1 0.277571 9.27786 -4.71969
1 -2.11639 10.4962 -1.4436
1 -1.27401 13.662 2.03071
1 -1.46138 12.2209 0.136911
1 6.5584 21.5405 8.94327
2 -21.4196 -3.80564 -9.054
1 -13.2658 5.27923 -1.41232
1 -20.7145 1.20101 13.5387
1 -18.03 -4.5991 8.76659
1 -12.6131 7.4714 2.29679
1 -11.4695 -2.81164 7.99686
1 -14.9875 6.09764 -2.70988
1 -7.52023 17.9135 -13.1569
1 -11.5179 11.3913 6.44897
1 -5.33464 -6.78986 -9.39593
1 -11.0022 -2.82813 -18.1681
2 -13.5323 13.9068 -22.6326
1 -12.1194 -10.746 -2.58265
1 -9.84407 4.44797 -16.2622
1 3.96673 -0.120165 13.9588
1 -16.7851 10.3023 -9.79095
1 -13.0671 -2.69482 6.50787
1 -13.8777 7.58378 -1.30715
1 0.432331 -3.47884 -3.01859
1 -16.4288 8.24603 9.52794
1 -4.42812 -7.57241 1.49133
1 -8.88443 3.89161 8.52623
2 -13.1839 4.4295 -3.49253
1 -2.27094 -7.2468 1.98444
1 -6.82836 3.54375 9.44073
1 -3.25228 -6.93698 -8.69123
1 -3.90639 -7.77342 -10.7489
1 -2.36487 -8.3471 -12.269
1 -4.14525 5.53116 -16.3751
1 1.28251 5.58192 -13.7971
1 -6.05728 4.57462 -16.9454
1 -4.21184 14.5626 -0.597298
1 -13.962 3.67269 -8.13875
1 8.93381 -4.75691 -6.11739
1 -2.32932 13.5879 -1.64846
1 14.8121 -9.00369 3.2381
1 1.12069 -3.90637 5.21625
1 0.000102993 -6.38911 19.1797
1 -0.852521 -9.16011 -13.7588
1 1.80739 6.79689 -11.7179
1 2.13336 7.41314 -15.2681
1 -7.97511 7.8383 -16.9629
2 3.64204 6.83953 -13.4041
1 4.98518 -4.70639 -7.19137
1 0.894891 10.8331 -3.32025
1 2.70426 -2.85502 6.61425
1 -3.35468 -21.566 -11.7729
1 3.73241 -3.51425 -5.88899
1 -0.59128 12.1368 -2.17004
1 17.4582 17.7352 -6.98877
1 -3.25267 17.0683 3.07421
1 -5.97821 15.1614 0.651285
1 -1.15856 11.4516 2.47195
1 2.60796 -6.99314 7.89126
1 -4.9239 3.12876 10.5704
1 1.44951 -7.43332 0.59767
1 2.7897 0.582986 0.712179
1 3.01372 1.90553 13.5824
1 1.09015 7.36434 14.3801
1 15.4809 -10.1604 -13.3693
1 8.84062 -12.5932 -14.3521
1 5.19007 10.2608 -14.7316
1 3.60263 -6.15569 3.08622
1 5.8555 7.31927 -11.4057
1 3.76756 8.23723 -11.2244
1 3.4093 -4.67237 5.45735
1 10.6975 12.3327 -9.65534
1 1.70069 15.0711 -0.512718
1 15.2871 -13.7731 -1.14865
1 6.34301 -9.93964 3.62637
1 7.22106 -5.58404 -1.45687
1 3.59555 -9.18121 6.89884
1 9.86975 -4.91647 4.97946
1 8.00117 4.4898 -9.65055
1 6.28233 -5.46908 -5.23659
1 18.8752 15.7708 -7.32557
1 2.41087 4.08006 13.1699
1 14.3301 -12.4652 0.243558
1 11.3468 -14.8148 0.919732
1 8.69917 -6.9223 1.4117
1 17.5117 16.0277 6.55803
1 7.52717 -4.31643 4.74738
1 3.03024 1.18579 -1.42423
1 5.70535 -4.68037 6.16517
1 5.71169 -4.08189 14.8184
1 14.4677 15.3772 16.2901
1 10.063 -4.33072 -4.06718
1 2.66769 -2.96066 -2.55914
1 5.39953 -4.51023 -0.651076
1 9.89166 -3.1133 0.564273
2 13.7857 -10.9253 1.98332
2 2.79176 -3.82021 2.70646
1 6.23442 -0.416758 5.65818
2 9.12521 -4.79924 2.45272
1 6.69126 -0.892695 -1.28197
