LAMMPS DATA FOR MEAM SIMULATION

    959   atoms
      2   atom types

  -23.61   23.61   xlo xhi
  -23.61   23.61   ylo yhi
  -23.61   23.61   zlo zhi

 Atoms

     1   1    -3.88909    -7.77817   -11.66726
     2   2     0.00000    -7.77817   -11.66726
     3   2     3.88909    -7.77817   -11.66726
     4   2    -7.77817    -3.88909   -11.66726
     5   1    -3.88909    -3.88909   -11.66726
     6   1     0.00000    -3.88909   -11.66726
     7   2     3.88909    -3.88909   -11.66726
     8   2     7.77817    -3.88909   -11.66726
     9   2    -7.77817     0.00000   -11.66726
    10   1    -3.88909     0.00000   -11.66726
    11   2     0.00000     0.00000   -11.66726
    12   2     3.88909     0.00000   -11.66726
    13   1     7.77817     0.00000   -11.66726
    14   1    -7.77817     3.88909   -11.66726
    15   1    -3.88909     3.88909   -11.66726
    16   1     0.00000     3.88909   -11.66726
    17   2     3.88909     3.88909   -11.66726
    18   1     7.77817     3.88909   -11.66726
    19   2    -3.88909     7.77817   -11.66726
    20   1     0.00000     7.77817   -11.66726
    21   1     3.88909     7.77817   -11.66726
    22   1    -3.88909   -11.66726    -7.77817
    23   1     0.00000   -11.66726    -7.77817
    24   2     3.88909   -11.66726    -7.77817
    25   1    -7.77817    -7.77817    -7.77817
    26   2    -3.88909    -7.77817    -7.77817
    27   2     0.00000    -7.77817    -7.77817
    28   2     3.88909    -7.77817    -7.77817
    29   1     7.77817    -7.77817    -7.77817
    30   2   -11.66726    -3.88909    -7.77817
    31   2    -7.77817    -3.88909    -7.77817
    32   1    -3.88909    -3.88909    -7.77817
    33   2     0.00000    -3.88909    -7.77817
    34   2     3.88909    -3.88909    -7.77817
    35   1     7.77817    -3.88909    -7.77817
    36   2    11.66726    -3.88909    -7.77817
    37   1   -11.66726     0.00000    -7.77817
    38   2    -7.77817     0.00000    -7.77817
    39   2    -3.88909     0.00000    -7.77817
    40   2     0.00000     0.00000    -7.77817
    41   2     3.88909     0.00000    -7.77817
    42   1     7.77817     0.00000    -7.77817
    43   2    11.66726     0.00000    -7.77817
    44   1   -11.66726     3.88909    -7.77817
    45   2    -7.77817     3.88909    -7.77817
    46   1    -3.88909     3.88909    -7.77817
    47   2     0.00000     3.88909    -7.77817
    48   2     3.88909     3.88909    -7.77817
    49   2     7.77817     3.88909    -7.77817
    50   1    11.66726     3.88909    -7.77817
    51   2    -7.77817     7.77817    -7.77817
    52   1    -3.88909     7.77817    -7.77817
    53   1     0.00000     7.77817    -7.77817
    54   1     3.88909     7.77817    -7.77817
    55   1     7.77817     7.77817    -7.77817
    56   2    -3.88909    11.66726    -7.77817
    57   1     0.00000    11.66726    -7.77817
    58   1     3.88909    11.66726    -7.77817
    59   2    -7.77817   -11.66726    -3.88909
    60   1    -3.88909   -11.66726    -3.88909
    61   2     0.00000   -11.66726    -3.88909
    62   2     3.88909   -11.66726    -3.88909
    63   1     7.77817   -11.66726    -3.88909
    64   1   -11.66726    -7.77817    -3.88909
    65   2    -7.77817    -7.77817    -3.88909
    66   1    -3.88909    -7.77817    -3.88909
    67   1     0.00000    -7.77817    -3.88909
    68   2     3.88909    -7.77817    -3.88909
    69   2     7.77817    -7.77817    -3.88909
    70   2    11.66726    -7.77817    -3.88909
    71   1   -11.66726    -3.88909    -3.88909
    72   1    -7.77817    -3.88909    -3.88909
    73   1    -3.88909    -3.88909    -3.88909
    74   2     0.00000    -3.88909    -3.88909
    75   2     3.88909    -3.88909    -3.88909
    76   2     7.77817    -3.88909    -3.88909
    77   2    11.66726    -3.88909    -3.88909
    78   2   -11.66726     0.00000    -3.88909
    79   2    -7.77817     0.00000    -3.88909
    80   2    -3.88909     0.00000    -3.88909
    81   1     0.00000     0.00000    -3.88909
    82   1     3.88909     0.00000    -3.88909
    83   2     7.77817     0.00000    -3.88909
    84   1    11.66726     0.00000    -3.88909
    85   2   -11.66726     3.88909    -3.88909
    86   2    -7.77817     3.88909    -3.88909
    87   2    -3.88909     3.88909    -3.88909
    88   1     0.00000     3.88909    -3.88909
    89   1     3.88909     3.88909    -3.88909
    90   1     7.77817     3.88909    -3.88909
    91   1    11.66726     3.88909    -3.88909
    92   1   -11.66726     7.77817    -3.88909
    93   1    -7.77817     7.77817    -3.88909
    94   1    -3.88909     7.77817    -3.88909
    95   2     0.00000     7.77817    -3.88909
    96   1     3.88909     7.77817    -3.88909
    97   2     7.77817     7.77817    -3.88909
    98   1    11.66726     7.77817    -3.88909
    99   1    -7.77817    11.66726    -3.88909
   100   2    -3.88909    11.66726    -3.88909
   101   1     0.00000    11.66726    -3.88909
   102   1     3.88909    11.66726    -3.88909
   103   1     7.77817    11.66726    -3.88909
   104   2    -7.77817   -11.66726     0.00000
   105   2    -3.88909   -11.66726     0.00000
   106   1     0.00000   -11.66726     0.00000
   107   1     3.88909   -11.66726     0.00000
   108   2     7.77817   -11.66726     0.00000
   109   2   -11.66726    -7.77817     0.00000
   110   1    -7.77817    -7.77817     0.00000
   111   1    -3.88909    -7.77817     0.00000
   112   2     0.00000    -7.77817     0.00000
   113   1     3.88909    -7.77817     0.00000
   114   2     7.77817    -7.77817     0.00000
   115   2    11.66726    -7.77817     0.00000
   116   1   -11.66726    -3.88909     0.00000
   117   2    -7.77817    -3.88909     0.00000
   118   2    -3.88909    -3.88909     0.00000
   119   1     0.00000    -3.88909     0.00000
   120   2     3.88909    -3.88909     0.00000
   121   2     7.77817    -3.88909     0.00000
   122   2    11.66726    -3.88909     0.00000
   123   2   -11.66726     0.00000     0.00000
   124   2    -7.77817     0.00000     0.00000
   125   2    -3.88909     0.00000     0.00000
   126   1     0.00000     0.00000     0.00000
   127   2     3.88909     0.00000     0.00000
   128   1     7.77817     0.00000     0.00000
   129   2    11.66726     0.00000     0.00000
   130   2   -11.66726     3.88909     0.00000
   131   1    -7.77817     3.88909     0.00000
   132   1    -3.88909     3.88909     0.00000
   133   2     0.00000     3.88909     0.00000
   134   1     3.88909     3.88909     0.00000
   135   2     7.77817     3.88909     0.00000
   136   1    11.66726     3.88909     0.00000
   137   2   -11.66726     7.77817     0.00000
   138   1    -7.77817     7.77817     0.00000
   139   1    -3.88909     7.77817     0.00000
   140   2     0.00000     7.77817     0.00000
   141   2     3.88909     7.77817     0.00000
   142   2     7.77817     7.77817     0.00000
   143   1    11.66726     7.77817     0.00000
   144   1    -7.77817    11.66726     0.00000
   145   1    -3.88909    11.66726     0.00000
   146   1     0.00000    11.66726     0.00000
   147   1     3.88909    11.66726     0.00000
   148   2     7.77817    11.66726     0.00000
   149   2    -7.77817   -11.66726     3.88909
   150   2    -3.88909   -11.66726     3.88909
   151   2     0.00000   -11.66726     3.88909
   152   1     3.88909   -11.66726     3.88909
   153   2     7.77817   -11.66726     3.88909
   154   2   -11.66726    -7.77817     3.88909
   155   1    -7.77817    -7.77817     3.88909
   156   1    -3.88909    -7.77817     3.88909
   157   1     0.00000    -7.77817     3.88909
   158   1     3.88909    -7.77817     3.88909
   159   2     7.77817    -7.77817     3.88909
   160   1    11.66726    -7.77817     3.88909
   161   2   -11.66726    -3.88909     3.88909
   162   1    -7.77817    -3.88909     3.88909
   163   2    -3.88909    -3.88909     3.88909
   164   2     0.00000    -3.88909     3.88909
   165   2     3.88909    -3.88909     3.88909
   166   1     7.77817    -3.88909     3.88909
   167   2    11.66726    -3.88909     3.88909
   168   1   -11.66726     0.00000     3.88909
   169   2    -7.77817     0.00000     3.88909
   170   1    -3.88909     0.00000     3.88909
   171   1     0.00000     0.00000     3.88909
   172   2     3.88909     0.00000     3.88909
   173   2     7.77817     0.00000     3.88909
   174   1    11.66726     0.00000     3.88909
   175   1   -11.66726     3.88909     3.88909
   176   1    -7.77817     3.88909     3.88909
   177   1    -3.88909     3.88909     3.88909
   178   1     0.00000     3.88909     3.88909
   179   1     3.88909     3.88909     3.88909
   180   1     7.77817     3.88909     3.88909
   181   2    11.66726     3.88909     3.88909
   182   2   -11.66726     7.77817     3.88909
   183   2    -7.77817     7.77817     3.88909
   184   2    -3.88909     7.77817     3.88909
   185   1     0.00000     7.77817     3.88909
   186   1     3.88909     7.77817     3.88909
   187   2     7.77817     7.77817     3.88909
   188   2    11.66726     7.77817     3.88909
   189   2    -7.77817    11.66726     3.88909
   190   2    -3.88909    11.66726     3.88909
   191   1     0.00000    11.66726     3.88909
   192   1     3.88909    11.66726     3.88909
   193   1     7.77817    11.66726     3.88909
   194   1    -3.88909   -11.66726     7.77817
   195   2     0.00000   -11.66726     7.77817
   196   1     3.88909   -11.66726     7.77817
   197   2    -7.77817    -7.77817     7.77817
   198   1    -3.88909    -7.77817     7.77817
   199   2     0.00000    -7.77817     7.77817
   200   2     3.88909    -7.77817     7.77817
   201   1     7.77817    -7.77817     7.77817
   202   1   -11.66726    -3.88909     7.77817
   203   1    -7.77817    -3.88909     7.77817
   204   2    -3.88909    -3.88909     7.77817
   205   1     0.00000    -3.88909     7.77817
   206   1     3.88909    -3.88909     7.77817
   207   2     7.77817    -3.88909     7.77817
   208   2    11.66726    -3.88909     7.77817
   209   2   -11.66726     0.00000     7.77817
   210   1    -7.77817     0.00000     7.77817
   211   2    -3.88909     0.00000     7.77817
   212   2     0.00000     0.00000     7.77817
   213   1     3.88909     0.00000     7.77817
   214   1     7.77817     0.00000     7.77817
   215   2    11.66726     0.00000     7.77817
   216   2   -11.66726     3.88909     7.77817
   217   2    -7.77817     3.88909     7.77817
   218   1    -3.88909     3.88909     7.77817
   219   2     0.00000     3.88909     7.77817
   220   2     3.88909     3.88909     7.77817
   221   2     7.77817     3.88909     7.77817
   222   2    11.66726     3.88909     7.77817
   223   2    -7.77817     7.77817     7.77817
   224   1    -3.88909     7.77817     7.77817
   225   1     0.00000     7.77817     7.77817
   226   1     3.88909     7.77817     7.77817
   227   1     7.77817     7.77817     7.77817
   228   2    -3.88909    11.66726     7.77817
   229   1     0.00000    11.66726     7.77817
   230   1     3.88909    11.66726     7.77817
   231   1    -3.88909    -7.77817    11.66726
   232   2     0.00000    -7.77817    11.66726
   233   2     3.88909    -7.77817    11.66726
   234   2    -7.77817    -3.88909    11.66726
   235   2    -3.88909    -3.88909    11.66726
   236   1     0.00000    -3.88909    11.66726
   237   2     3.88909    -3.88909    11.66726
   238   1     7.77817    -3.88909    11.66726
   239   2    -7.77817     0.00000    11.66726
   240   2    -3.88909     0.00000    11.66726
   241   1     0.00000     0.00000    11.66726
   242   2     3.88909     0.00000    11.66726
   243   1     7.77817     0.00000    11.66726
   244   1    -7.77817     3.88909    11.66726
   245   2    -3.88909     3.88909    11.66726
   246   2     0.00000     3.88909    11.66726
   247   2     3.88909     3.88909    11.66726
   248   2     7.77817     3.88909    11.66726
   249   2    -3.88909     7.77817    11.66726
   250   1     0.00000     7.77817    11.66726
   251   1     3.88909     7.77817    11.66726
   252   1    -5.83363    -5.83363   -11.66726
   253   2    -1.94454    -5.83363   -11.66726
   254   1     1.94454    -5.83363   -11.66726
   255   1     5.83363    -5.83363   -11.66726
   256   2    -5.83363    -1.94454   -11.66726
   257   1    -1.94454    -1.94454   -11.66726
   258   2     1.94454    -1.94454   -11.66726
   259   1     5.83363    -1.94454   -11.66726
   260   2    -5.83363     1.94454   -11.66726
   261   2    -1.94454     1.94454   -11.66726
   262   1     1.94454     1.94454   -11.66726
   263   2     5.83363     1.94454   -11.66726
   264   1    -5.83363     5.83363   -11.66726
   265   1    -1.94454     5.83363   -11.66726
   266   1     1.94454     5.83363   -11.66726
   267   1     5.83363     5.83363   -11.66726
   268   1    -5.83363    -9.72272    -7.77817
   269   1    -1.94454    -9.72272    -7.77817
   270   2     1.94454    -9.72272    -7.77817
   271   2     5.83363    -9.72272    -7.77817
   272   2    -9.72272    -5.83363    -7.77817
   273   2    -5.83363    -5.83363    -7.77817
   274   1    -1.94454    -5.83363    -7.77817
   275   2     1.94454    -5.83363    -7.77817
   276   1     5.83363    -5.83363    -7.77817
   277   1     9.72272    -5.83363    -7.77817
   278   2    -9.72272    -1.94454    -7.77817
   279   1    -5.83363    -1.94454    -7.77817
   280   2    -1.94454    -1.94454    -7.77817
   281   1     1.94454    -1.94454    -7.77817
   282   2     5.83363    -1.94454    -7.77817
   283   2     9.72272    -1.94454    -7.77817
   284   1    -9.72272     1.94454    -7.77817
   285   1    -5.83363     1.94454    -7.77817
   286   2    -1.94454     1.94454    -7.77817
   287   2     1.94454     1.94454    -7.77817
   288   1     5.83363     1.94454    -7.77817
   289   2     9.72272     1.94454    -7.77817
   290   2    -9.72272     5.83363    -7.77817
   291   1    -5.83363     5.83363    -7.77817
   292   1    -1.94454     5.83363    -7.77817
   293   2     1.94454     5.83363    -7.77817
   294   1     5.83363     5.83363    -7.77817
   295   2     9.72272     5.83363    -7.77817
   296   2    -5.83363     9.72272    -7.77817
   297   1    -1.94454     9.72272    -7.77817
   298   1     1.94454     9.72272    -7.77817
   299   1     5.83363     9.72272    -7.77817
   300   2    -1.94454   -13.61181    -3.88909
   301   2     1.94454   -13.61181    -3.88909
   302   1    -9.72272    -9.72272    -3.88909
   303   1    -5.83363    -9.72272    -3.88909
   304   1    -1.94454    -9.72272    -3.88909
   305   1     1.94454    -9.72272    -3.88909
   306   2     5.83363    -9.72272    -3.88909
   307   1     9.72272    -9.72272    -3.88909
   308   1    -9.72272    -5.83363    -3.88909
   309   2    -5.83363    -5.83363    -3.88909
   310   1    -1.94454    -5.83363    -3.88909
   311   1     1.94454    -5.83363    -3.88909
   312   1     5.83363    -5.83363    -3.88909
   313   2     9.72272    -5.83363    -3.88909
   314   1   -13.61181    -1.94454    -3.88909
   315   2    -9.72272    -1.94454    -3.88909
   316   1    -5.83363    -1.94454    -3.88909
   317   1    -1.94454    -1.94454    -3.88909
   318   1     1.94454    -1.94454    -3.88909
   319   1     5.83363    -1.94454    -3.88909
   320   1     9.72272    -1.94454    -3.88909
   321   2    13.61181    -1.94454    -3.88909
   322   2   -13.61181     1.94454    -3.88909
   323   1    -9.72272     1.94454    -3.88909
   324   1    -5.83363     1.94454    -3.88909
   325   2    -1.94454     1.94454    -3.88909
   326   2     1.94454     1.94454    -3.88909
   327   2     5.83363     1.94454    -3.88909
   328   1     9.72272     1.94454    -3.88909
   329   2    13.61181     1.94454    -3.88909
   330   2    -9.72272     5.83363    -3.88909
   331   1    -5.83363     5.83363    -3.88909
   332   1    -1.94454     5.83363    -3.88909
   333   1     1.94454     5.83363    -3.88909
   334   1     5.83363     5.83363    -3.88909
   335   2     9.72272     5.83363    -3.88909
   336   2    -9.72272     9.72272    -3.88909
   337   1    -5.83363     9.72272    -3.88909
   338   1    -1.94454     9.72272    -3.88909
   339   1     1.94454     9.72272    -3.88909
   340   2     5.83363     9.72272    -3.88909
   341   2     9.72272     9.72272    -3.88909
   342   2    -1.94454    13.61181    -3.88909
   343   2     1.94454    13.61181    -3.88909
   344   1    -5.83363   -13.61181     0.00000
   345   2    -1.94454   -13.61181     0.00000
   346   1     1.94454   -13.61181     0.00000
   347   2     5.83363   -13.61181     0.00000
   348   1    -9.72272    -9.72272     0.00000
   349   2    -5.83363    -9.72272     0.00000
   350   2    -1.94454    -9.72272     0.00000
   351   1     1.94454    -9.72272     0.00000
   352   2     5.83363    -9.72272     0.00000
   353   2     9.72272    -9.72272     0.00000
   354   2   -13.61181    -5.83363     0.00000
   355   1    -9.72272    -5.83363     0.00000
   356   1    -5.83363    -5.83363     0.00000
   357   1    -1.94454    -5.83363     0.00000
   358   2     1.94454    -5.83363     0.00000
   359   2     5.83363    -5.83363     0.00000
   360   1     9.72272    -5.83363     0.00000
   361   1    13.61181    -5.83363     0.00000
   362   2   -13.61181    -1.94454     0.00000
   363   2    -9.72272    -1.94454     0.00000
   364   1    -5.83363    -1.94454     0.00000
   365   2    -1.94454    -1.94454     0.00000
   366   2     1.94454    -1.94454     0.00000
   367   2     5.83363    -1.94454     0.00000
   368   1     9.72272    -1.94454     0.00000
   369   2    13.61181    -1.94454     0.00000
   370   2   -13.61181     1.94454     0.00000
   371   2    -9.72272     1.94454     0.00000
   372   2    -5.83363     1.94454     0.00000
   373   2    -1.94454     1.94454     0.00000
   374   2     1.94454     1.94454     0.00000
   375   1     5.83363     1.94454     0.00000
   376   1     9.72272     1.94454     0.00000
   377   1    13.61181     1.94454     0.00000
   378   1   -13.61181     5.83363     0.00000
   379   1    -9.72272     5.83363     0.00000
   380   2    -5.83363     5.83363     0.00000
   381   1    -1.94454     5.83363     0.00000
   382   1     1.94454     5.83363     0.00000
   383   2     5.83363     5.83363     0.00000
   384   1     9.72272     5.83363     0.00000
   385   1    13.61181     5.83363     0.00000
   386   2    -9.72272     9.72272     0.00000
   387   1    -5.83363     9.72272     0.00000
   388   1    -1.94454     9.72272     0.00000
   389   1     1.94454     9.72272     0.00000
   390   2     5.83363     9.72272     0.00000
   391   1     9.72272     9.72272     0.00000
   392   1    -5.83363    13.61181     0.00000
   393   2    -1.94454    13.61181     0.00000
   394   2     1.94454    13.61181     0.00000
   395   1     5.83363    13.61181     0.00000
   396   1    -1.94454   -13.61181     3.88909
   397   2     1.94454   -13.61181     3.88909
   398   1    -9.72272    -9.72272     3.88909
   399   2    -5.83363    -9.72272     3.88909
   400   2    -1.94454    -9.72272     3.88909
   401   1     1.94454    -9.72272     3.88909
   402   2     5.83363    -9.72272     3.88909
   403   2     9.72272    -9.72272     3.88909
   404   1    -9.72272    -5.83363     3.88909
   405   1    -5.83363    -5.83363     3.88909
   406   2    -1.94454    -5.83363     3.88909
   407   2     1.94454    -5.83363     3.88909
   408   1     5.83363    -5.83363     3.88909
   409   1     9.72272    -5.83363     3.88909
   410   2   -13.61181    -1.94454     3.88909
   411   2    -9.72272    -1.94454     3.88909
   412   1    -5.83363    -1.94454     3.88909
   413   1    -1.94454    -1.94454     3.88909
   414   1     1.94454    -1.94454     3.88909
   415   1     5.83363    -1.94454     3.88909
   416   1     9.72272    -1.94454     3.88909
   417   2    13.61181    -1.94454     3.88909
   418   1   -13.61181     1.94454     3.88909
   419   2    -9.72272     1.94454     3.88909
   420   2    -5.83363     1.94454     3.88909
   421   2    -1.94454     1.94454     3.88909
   422   2     1.94454     1.94454     3.88909
   423   1     5.83363     1.94454     3.88909
   424   2     9.72272     1.94454     3.88909
   425   2    13.61181     1.94454     3.88909
   426   2    -9.72272     5.83363     3.88909
   427   1    -5.83363     5.83363     3.88909
   428   1    -1.94454     5.83363     3.88909
   429   2     1.94454     5.83363     3.88909
   430   2     5.83363     5.83363     3.88909
   431   1     9.72272     5.83363     3.88909
   432   1    -9.72272     9.72272     3.88909
   433   2    -5.83363     9.72272     3.88909
   434   2    -1.94454     9.72272     3.88909
   435   1     1.94454     9.72272     3.88909
   436   1     5.83363     9.72272     3.88909
   437   2     9.72272     9.72272     3.88909
   438   1    -1.94454    13.61181     3.88909
   439   2     1.94454    13.61181     3.88909
   440   1    -5.83363    -9.72272     7.77817
   441   1    -1.94454    -9.72272     7.77817
   442   2     1.94454    -9.72272     7.77817
   443   1     5.83363    -9.72272     7.77817
   444   2    -9.72272    -5.83363     7.77817
   445   1    -5.83363    -5.83363     7.77817
   446   1    -1.94454    -5.83363     7.77817
   447   1     1.94454    -5.83363     7.77817
   448   2     5.83363    -5.83363     7.77817
   449   2     9.72272    -5.83363     7.77817
   450   1    -9.72272    -1.94454     7.77817
   451   1    -5.83363    -1.94454     7.77817
   452   1    -1.94454    -1.94454     7.77817
   453   2     1.94454    -1.94454     7.77817
   454   1     5.83363    -1.94454     7.77817
   455   1     9.72272    -1.94454     7.77817
   456   1    -9.72272     1.94454     7.77817
   457   1    -5.83363     1.94454     7.77817
   458   2    -1.94454     1.94454     7.77817
   459   1     1.94454     1.94454     7.77817
   460   1     5.83363     1.94454     7.77817
   461   1     9.72272     1.94454     7.77817
   462   2    -9.72272     5.83363     7.77817
   463   1    -5.83363     5.83363     7.77817
   464   2    -1.94454     5.83363     7.77817
   465   1     1.94454     5.83363     7.77817
   466   2     5.83363     5.83363     7.77817
   467   1     9.72272     5.83363     7.77817
   468   2    -5.83363     9.72272     7.77817
   469   2    -1.94454     9.72272     7.77817
   470   1     1.94454     9.72272     7.77817
   471   2     5.83363     9.72272     7.77817
   472   1    -5.83363    -5.83363    11.66726
   473   2    -1.94454    -5.83363    11.66726
   474   2     1.94454    -5.83363    11.66726
   475   1     5.83363    -5.83363    11.66726
   476   1    -5.83363    -1.94454    11.66726
   477   1    -1.94454    -1.94454    11.66726
   478   1     1.94454    -1.94454    11.66726
   479   1     5.83363    -1.94454    11.66726
   480   2    -5.83363     1.94454    11.66726
   481   1    -1.94454     1.94454    11.66726
   482   1     1.94454     1.94454    11.66726
   483   2     5.83363     1.94454    11.66726
   484   1    -5.83363     5.83363    11.66726
   485   1    -1.94454     5.83363    11.66726
   486   2     1.94454     5.83363    11.66726
   487   1     5.83363     5.83363    11.66726
   488   2    -5.83363   -11.66726    -5.83363
   489   1    -1.94454   -11.66726    -5.83363
   490   2     1.94454   -11.66726    -5.83363
   491   1     5.83363   -11.66726    -5.83363
   492   2    -5.83363   -11.66726    -1.94454
   493   2    -1.94454   -11.66726    -1.94454
   494   1     1.94454   -11.66726    -1.94454
   495   1     5.83363   -11.66726    -1.94454
   496   1    -5.83363   -11.66726     1.94454
   497   2    -1.94454   -11.66726     1.94454
   498   1     1.94454   -11.66726     1.94454
   499   2     5.83363   -11.66726     1.94454
   500   1    -5.83363   -11.66726     5.83363
   501   2    -1.94454   -11.66726     5.83363
   502   1     1.94454   -11.66726     5.83363
   503   2     5.83363   -11.66726     5.83363
   504   1    -5.83363    -7.77817    -9.72272
   505   2    -1.94454    -7.77817    -9.72272
   506   2     1.94454    -7.77817    -9.72272
   507   1     5.83363    -7.77817    -9.72272
   508   2    -9.72272    -7.77817    -5.83363
   509   1    -5.83363    -7.77817    -5.83363
   510   1    -1.94454    -7.77817    -5.83363
   511   1     1.94454    -7.77817    -5.83363
   512   2     5.83363    -7.77817    -5.83363
   513   2     9.72272    -7.77817    -5.83363
   514   2    -9.72272    -7.77817    -1.94454
   515   2    -5.83363    -7.77817    -1.94454
   516   2    -1.94454    -7.77817    -1.94454
   517   1     1.94454    -7.77817    -1.94454
   518   1     5.83363    -7.77817    -1.94454
   519   2     9.72272    -7.77817    -1.94454
   520   1    -9.72272    -7.77817     1.94454
   521   1    -5.83363    -7.77817     1.94454
   522   2    -1.94454    -7.77817     1.94454
   523   2     1.94454    -7.77817     1.94454
   524   2     5.83363    -7.77817     1.94454
   525   2     9.72272    -7.77817     1.94454
   526   2    -9.72272    -7.77817     5.83363
   527   2    -5.83363    -7.77817     5.83363
   528   2    -1.94454    -7.77817     5.83363
   529   2     1.94454    -7.77817     5.83363
   530   1     5.83363    -7.77817     5.83363
   531   2     9.72272    -7.77817     5.83363
   532   1    -5.83363    -7.77817     9.72272
   533   1    -1.94454    -7.77817     9.72272
   534   2     1.94454    -7.77817     9.72272
   535   2     5.83363    -7.77817     9.72272
   536   1    -1.94454    -3.88909   -13.61181
   537   1     1.94454    -3.88909   -13.61181
   538   2    -9.72272    -3.88909    -9.72272
   539   1    -5.83363    -3.88909    -9.72272
   540   1    -1.94454    -3.88909    -9.72272
   541   1     1.94454    -3.88909    -9.72272
   542   1     5.83363    -3.88909    -9.72272
   543   2     9.72272    -3.88909    -9.72272
   544   2    -9.72272    -3.88909    -5.83363
   545   2    -5.83363    -3.88909    -5.83363
   546   1    -1.94454    -3.88909    -5.83363
   547   2     1.94454    -3.88909    -5.83363
   548   1     5.83363    -3.88909    -5.83363
   549   1     9.72272    -3.88909    -5.83363
   550   1   -13.61181    -3.88909    -1.94454
   551   2    -9.72272    -3.88909    -1.94454
   552   1    -5.83363    -3.88909    -1.94454
   553   1    -1.94454    -3.88909    -1.94454
   554   2     1.94454    -3.88909    -1.94454
   555   2     5.83363    -3.88909    -1.94454
   556   1     9.72272    -3.88909    -1.94454
   557   2    13.61181    -3.88909    -1.94454
   558   1   -13.61181    -3.88909     1.94454
   559   2    -9.72272    -3.88909     1.94454
   560   2    -5.83363    -3.88909     1.94454
   561   1    -1.94454    -3.88909     1.94454
   562   1     1.94454    -3.88909     1.94454
   563   1     5.83363    -3.88909     1.94454
   564   2     9.72272    -3.88909     1.94454
   565   1    13.61181    -3.88909     1.94454
   566   2    -9.72272    -3.88909     5.83363
   567   1    -5.83363    -3.88909     5.83363
   568   1    -1.94454    -3.88909     5.83363
   569   1     1.94454    -3.88909     5.83363
   570   2     5.83363    -3.88909     5.83363
   571   1     9.72272    -3.88909     5.83363
   572   2    -9.72272    -3.88909     9.72272
   573   2    -5.83363    -3.88909     9.72272
   574   1    -1.94454    -3.88909     9.72272
   575   2     1.94454    -3.88909     9.72272
   576   2     5.83363    -3.88909     9.72272
   577   1     9.72272    -3.88909     9.72272
   578   2    -1.94454    -3.88909    13.61181
   579   1     1.94454    -3.88909    13.61181
   580   2    -5.83363     0.00000   -13.61181
   581   2    -1.94454     0.00000   -13.61181
   582   2     1.94454     0.00000   -13.61181
   583   1     5.83363     0.00000   -13.61181
   584   2    -9.72272     0.00000    -9.72272
   585   1    -5.83363     0.00000    -9.72272
   586   1    -1.94454     0.00000    -9.72272
   587   2     1.94454     0.00000    -9.72272
   588   2     5.83363     0.00000    -9.72272
   589   1     9.72272     0.00000    -9.72272
   590   2   -13.61181     0.00000    -5.83363
   591   2    -9.72272     0.00000    -5.83363
   592   1    -5.83363     0.00000    -5.83363
   593   1    -1.94454     0.00000    -5.83363
   594   1     1.94454     0.00000    -5.83363
   595   1     5.83363     0.00000    -5.83363
   596   1     9.72272     0.00000    -5.83363
   597   1    13.61181     0.00000    -5.83363
   598   2   -13.61181     0.00000    -1.94454
   599   2    -9.72272     0.00000    -1.94454
   600   1    -5.83363     0.00000    -1.94454
   601   2    -1.94454     0.00000    -1.94454
   602   1     1.94454     0.00000    -1.94454
   603   2     5.83363     0.00000    -1.94454
   604   2     9.72272     0.00000    -1.94454
   605   1    13.61181     0.00000    -1.94454
   606   1   -13.61181     0.00000     1.94454
   607   1    -9.72272     0.00000     1.94454
   608   2    -5.83363     0.00000     1.94454
   609   2    -1.94454     0.00000     1.94454
   610   2     1.94454     0.00000     1.94454
   611   1     5.83363     0.00000     1.94454
   612   1     9.72272     0.00000     1.94454
   613   1    13.61181     0.00000     1.94454
   614   1   -13.61181     0.00000     5.83363
   615   1    -9.72272     0.00000     5.83363
   616   1    -5.83363     0.00000     5.83363
   617   1    -1.94454     0.00000     5.83363
   618   1     1.94454     0.00000     5.83363
   619   1     5.83363     0.00000     5.83363
   620   2     9.72272     0.00000     5.83363
   621   1    13.61181     0.00000     5.83363
   622   2    -9.72272     0.00000     9.72272
   623   1    -5.83363     0.00000     9.72272
   624   1    -1.94454     0.00000     9.72272
   625   1     1.94454     0.00000     9.72272
   626   2     5.83363     0.00000     9.72272
   627   2     9.72272     0.00000     9.72272
   628   2    -5.83363     0.00000    13.61181
   629   2    -1.94454     0.00000    13.61181
   630   1     1.94454     0.00000    13.61181
   631   2     5.83363     0.00000    13.61181
   632   2    -1.94454     3.88909   -13.61181
   633   2     1.94454     3.88909   -13.61181
   634   2    -9.72272     3.88909    -9.72272