LAMMPS DATA FOR MEAM SIMULATION

    959   atoms
      2   atom types

  -23.76   23.76   xlo xhi
  -23.76   23.76   ylo yhi
  -23.76   23.76   zlo zhi

 Atoms

     1   2    -3.93151    -7.86303   -11.79454
     2   2     0.00000    -7.86303   -11.79454
     3   2     3.93151    -7.86303   -11.79454
     4   2    -7.86303    -3.93151   -11.79454
     5   2    -3.93151    -3.93151   -11.79454
     6   2     0.00000    -3.93151   -11.79454
     7   2     3.93151    -3.93151   -11.79454
     8   2     7.86303    -3.93151   -11.79454
     9   2    -7.86303     0.00000   -11.79454
    10   2    -3.93151     0.00000   -11.79454
    11   2     0.00000     0.00000   -11.79454
    12   2     3.93151     0.00000   -11.79454
    13   2     7.86303     0.00000   -11.79454
    14   2    -7.86303     3.93151   -11.79454
    15   2    -3.93151     3.93151   -11.79454
    16   2     0.00000     3.93151   -11.79454
    17   2     3.93151     3.93151   -11.79454
    18   2     7.86303     3.93151   -11.79454
    19   2    -3.93151     7.86303   -11.79454
    20   2     0.00000     7.86303   -11.79454
    21   2     3.93151     7.86303   -11.79454
    22   2    -3.93151   -11.79454    -7.86303
    23   2     0.00000   -11.79454    -7.86303
    24   2     3.93151   -11.79454    -7.86303
    25   2    -7.86303    -7.86303    -7.86303
    26   2    -3.93151    -7.86303    -7.86303
    27   2     0.00000    -7.86303    -7.86303
    28   2     3.93151    -7.86303    -7.86303
    29   2     7.86303    -7.86303    -7.86303
    30   2   -11.79454    -3.93151    -7.86303
    31   2    -7.86303    -3.93151    -7.86303
    32   2    -3.93151    -3.93151    -7.86303
    33   2     0.00000    -3.93151    -7.86303
    34   2     3.93151    -3.93151    -7.86303
    35   2     7.86303    -3.93151    -7.86303
    36   2    11.79454    -3.93151    -7.86303
    37   2   -11.79454     0.00000    -7.86303
    38   2    -7.86303     0.00000    -7.86303
    39   2    -3.93151     0.00000    -7.86303
    40   2     0.00000     0.00000    -7.86303
    41   2     3.93151     0.00000    -7.86303
    42   2     7.86303     0.00000    -7.86303
    43   2    11.79454     0.00000    -7.86303
    44   2   -11.79454     3.93151    -7.86303
    45   2    -7.86303     3.93151    -7.86303
    46   2    -3.93151     3.93151    -7.86303
    47   2     0.00000     3.93151    -7.86303
    48   2     3.93151     3.93151    -7.86303
    49   2     7.86303     3.93151    -7.86303
    50   2    11.79454     3.93151    -7.86303
    51   2    -7.86303     7.86303    -7.86303
    52   2    -3.93151     7.86303    -7.86303
    53   2     0.00000     7.86303    -7.86303
    54   2     3.93151     7.86303    -7.86303
    55   2     7.86303     7.86303    -7.86303
    56   2    -3.93151    11.79454    -7.86303
    57   2     0.00000    11.79454    -7.86303
    58   2     3.93151    11.79454    -7.86303
    59   2    -7.86303   -11.79454    -3.93151
    60   2    -3.93151   -11.79454    -3.93151
    61   2     0.00000   -11.79454    -3.93151
    62   2     3.93151   -11.79454    -3.93151
    63   2     7.86303   -11.79454    -3.93151
    64   2   -11.79454    -7.86303    -3.93151
    65   2    -7.86303    -7.86303    -3.93151
    66   2    -3.93151    -7.86303    -3.93151
    67   2     0.00000    -7.86303    -3.93151
    68   2     3.93151    -7.86303    -3.93151
    69   2     7.86303    -7.86303    -3.93151
    70   2    11.79454    -7.86303    -3.93151
    71   2   -11.79454    -3.93151    -3.93151
    72   2    -7.86303    -3.93151    -3.93151
    73   2    -3.93151    -3.93151    -3.93151
    74   2     0.00000    -3.93151    -3.93151
    75   2     3.93151    -3.93151    -3.93151
    76   2     7.86303    -3.93151    -3.93151
    77   2    11.79454    -3.93151    -3.93151
    78   2   -11.79454     0.00000    -3.93151
    79   2    -7.86303     0.00000    -3.93151
    80   2    -3.93151     0.00000    -3.93151
    81   2     0.00000     0.00000    -3.93151
    82   2     3.93151     0.00000    -3.93151
    83   2     7.86303     0.00000    -3.93151
    84   2    11.79454     0.00000    -3.93151
    85   2   -11.79454     3.93151    -3.93151
    86   2    -7.86303     3.93151    -3.93151
    87   2    -3.93151     3.93151    -3.93151
    88   2     0.00000     3.93151    -3.93151
    89   2     3.93151     3.93151    -3.93151
    90   2     7.86303     3.93151    -3.93151
    91   2    11.79454     3.93151    -3.93151
    92   2   -11.79454     7.86303    -3.93151
    93   2    -7.86303     7.86303    -3.93151
    94   2    -3.93151     7.86303    -3.93151
    95   2     0.00000     7.86303    -3.93151
    96   2     3.93151     7.86303    -3.93151
    97   2     7.86303     7.86303    -3.93151
    98   2    11.79454     7.86303    -3.93151
    99   2    -7.86303    11.79454    -3.93151
   100   2    -3.93151    11.79454    -3.93151
   101   2     0.00000    11.79454    -3.93151
   102   2     3.93151    11.79454    -3.93151
   103   2     7.86303    11.79454    -3.93151
   104   2    -7.86303   -11.79454     0.00000
   105   2    -3.93151   -11.79454     0.00000
   106   2     0.00000   -11.79454     0.00000
   107   2     3.93151   -11.79454     0.00000
   108   2     7.86303   -11.79454     0.00000
   109   2   -11.79454    -7.86303     0.00000
   110   2    -7.86303    -7.86303     0.00000
   111   2    -3.93151    -7.86303     0.00000
   112   2     0.00000    -7.86303     0.00000
   113   2     3.93151    -7.86303     0.00000
   114   2     7.86303    -7.86303     0.00000
   115   2    11.79454    -7.86303     0.00000
   116   2   -11.79454    -3.93151     0.00000
   117   2    -7.86303    -3.93151     0.00000
   118   2    -3.93151    -3.93151     0.00000
   119   2     0.00000    -3.93151     0.00000
   120   2     3.93151    -3.93151     0.00000
   121   2     7.86303    -3.93151     0.00000
   122   2    11.79454    -3.93151     0.00000
   123   2   -11.79454     0.00000     0.00000
   124   2    -7.86303     0.00000     0.00000
   125   2    -3.93151     0.00000     0.00000
   126   2     0.00000     0.00000     0.00000
   127   2     3.93151     0.00000     0.00000
   128   2     7.86303     0.00000     0.00000
   129   2    11.79454     0.00000     0.00000
   130   2   -11.79454     3.93151     0.00000
   131   2    -7.86303     3.93151     0.00000
   132   2    -3.93151     3.93151     0.00000
   133   2     0.00000     3.93151     0.00000
   134   2     3.93151     3.93151     0.00000
   135   2     7.86303     3.93151     0.00000
   136   2    11.79454     3.93151     0.00000
   137   2   -11.79454     7.86303     0.00000
   138   2    -7.86303     7.86303     0.00000
   139   2    -3.93151     7.86303     0.00000
   140   2     0.00000     7.86303     0.00000
   141   2     3.93151     7.86303     0.00000
   142   2     7.86303     7.86303     0.00000
   143   2    11.79454     7.86303     0.00000
   144   2    -7.86303    11.79454     0.00000
   145   2    -3.93151    11.79454     0.00000
   146   2     0.00000    11.79454     0.00000
   147   2     3.93151    11.79454     0.00000
   148   2     7.86303    11.79454     0.00000
   149   2    -7.86303   -11.79454     3.93151
   150   2    -3.93151   -11.79454     3.93151
   151   2     0.00000   -11.79454     3.93151
   152   2     3.93151   -11.79454     3.93151
   153   2     7.86303   -11.79454     3.93151
   154   2   -11.79454    -7.86303     3.93151
   155   2    -7.86303    -7.86303     3.93151
   156   2    -3.93151    -7.86303     3.93151
   157   2     0.00000    -7.86303     3.93151
   158   2     3.93151    -7.86303     3.93151
   159   2     7.86303    -7.86303     3.93151
   160   2    11.79454    -7.86303     3.93151
   161   2   -11.79454    -3.93151     3.93151
   162   2    -7.86303    -3.93151     3.93151
   163   2    -3.93151    -3.93151     3.93151
   164   2     0.00000    -3.93151     3.93151
   165   2     3.93151    -3.93151     3.93151
   166   2     7.86303    -3.93151     3.93151
   167   2    11.79454    -3.93151     3.93151
   168   2   -11.79454     0.00000     3.93151
   169   2    -7.86303     0.00000     3.93151
   170   2    -3.93151     0.00000     3.93151
   171   2     0.00000     0.00000     3.93151
   172   2     3.93151     0.00000     3.93151
   173   2     7.86303     0.00000     3.93151
   174   2    11.79454     0.00000     3.93151
   175   2   -11.79454     3.93151     3.93151
   176   2    -7.86303     3.93151     3.93151
   177   2    -3.93151     3.93151     3.93151
   178   2     0.00000     3.93151     3.93151
   179   2     3.93151     3.93151     3.93151
   180   2     7.86303     3.93151     3.93151
   181   2    11.79454     3.93151     3.93151
   182   2   -11.79454     7.86303     3.93151
   183   2    -7.86303     7.86303     3.93151
   184   2    -3.93151     7.86303     3.93151
   185   2     0.00000     7.86303     3.93151
   186   2     3.93151     7.86303     3.93151
   187   2     7.86303     7.86303     3.93151
   188   2    11.79454     7.86303     3.93151
   189   2    -7.86303    11.79454     3.93151
   190   2    -3.93151    11.79454     3.93151
   191   2     0.00000    11.79454     3.93151
   192   2     3.93151    11.79454     3.93151
   193   2     7.86303    11.79454     3.93151
   194   2    -3.93151   -11.79454     7.86303
   195   2     0.00000   -11.79454     7.86303
   196   2     3.93151   -11.79454     7.86303
   197   2    -7.86303    -7.86303     7.86303
   198   2    -3.93151    -7.86303     7.86303
   199   2     0.00000    -7.86303     7.86303
   200   2     3.93151    -7.86303     7.86303
   201   2     7.86303    -7.86303     7.86303
   202   2   -11.79454    -3.93151     7.86303
   203   2    -7.86303    -3.93151     7.86303
   204   2    -3.93151    -3.93151     7.86303
   205   2     0.00000    -3.93151     7.86303
   206   2     3.93151    -3.93151     7.86303
   207   2     7.86303    -3.93151     7.86303
   208   2    11.79454    -3.93151     7.86303
   209   2   -11.79454     0.00000     7.86303
   210   2    -7.86303     0.00000     7.86303
   211   2    -3.93151     0.00000     7.86303
   212   2     0.00000     0.00000     7.86303
   213   2     3.93151     0.00000     7.86303
   214   2     7.86303     0.00000     7.86303
   215   2    11.79454     0.00000     7.86303
   216   2   -11.79454     3.93151     7.86303
   217   2    -7.86303     3.93151     7.86303
   218   2    -3.93151     3.93151     7.86303
   219   2     0.00000     3.93151     7.86303
   220   2     3.93151     3.93151     7.86303
   221   2     7.86303     3.93151     7.86303
   222   2    11.79454     3.93151     7.86303
   223   2    -7.86303     7.86303     7.86303
   224   2    -3.93151     7.86303     7.86303
   225   2     0.00000     7.86303     7.86303
   226   2     3.93151     7.86303     7.86303
   227   2     7.86303     7.86303     7.86303
   228   2    -3.93151    11.79454     7.86303
   229   2     0.00000    11.79454     7.86303
   230   2     3.93151    11.79454     7.86303
   231   2    -3.93151    -7.86303    11.79454
   232   2     0.00000    -7.86303    11.79454
   233   2     3.93151    -7.86303    11.79454
   234   2    -7.86303    -3.93151    11.79454
   235   2    -3.93151    -3.93151    11.79454
   236   2     0.00000    -3.93151    11.79454
   237   2     3.93151    -3.93151    11.79454
   238   2     7.86303    -3.93151    11.79454
   239   2    -7.86303     0.00000    11.79454
   240   2    -3.93151     0.00000    11.79454
   241   2     0.00000     0.00000    11.79454
   242   2     3.93151     0.00000    11.79454
   243   2     7.86303     0.00000    11.79454
   244   2    -7.86303     3.93151    11.79454
   245   2    -3.93151     3.93151    11.79454
   246   2     0.00000     3.93151    11.79454
   247   2     3.93151     3.93151    11.79454
   248   2     7.86303     3.93151    11.79454
   249   2    -3.93151     7.86303    11.79454
   250   2     0.00000     7.86303    11.79454
   251   2     3.93151     7.86303    11.79454
   252   2    -5.89727    -5.89727   -11.79454
   253   2    -1.96576    -5.89727   -11.79454
   254   2     1.96576    -5.89727   -11.79454
   255   2     5.89727    -5.89727   -11.79454
   256   2    -5.89727    -1.96576   -11.79454
   257   2    -1.96576    -1.96576   -11.79454
   258   2     1.96576    -1.96576   -11.79454
   259   2     5.89727    -1.96576   -11.79454
   260   2    -5.89727     1.96576   -11.79454
   261   2    -1.96576     1.96576   -11.79454
   262   2     1.96576     1.96576   -11.79454
   263   2     5.89727     1.96576   -11.79454
   264   2    -5.89727     5.89727   -11.79454
   265   2    -1.96576     5.89727   -11.79454
   266   2     1.96576     5.89727   -11.79454
   267   2     5.89727     5.89727   -11.79454
   268   2    -5.89727    -9.82878    -7.86303
   269   2    -1.96576    -9.82878    -7.86303
   270   2     1.96576    -9.82878    -7.86303
   271   2     5.89727    -9.82878    -7.86303
   272   2    -9.82878    -5.89727    -7.86303
   273   2    -5.89727    -5.89727    -7.86303
   274   2    -1.96576    -5.89727    -7.86303
   275   2     1.96576    -5.89727    -7.86303
   276   2     5.89727    -5.89727    -7.86303
   277   2     9.82878    -5.89727    -7.86303
   278   2    -9.82878    -1.96576    -7.86303
   279   2    -5.89727    -1.96576    -7.86303
   280   2    -1.96576    -1.96576    -7.86303
   281   2     1.96576    -1.96576    -7.86303
   282   2     5.89727    -1.96576    -7.86303
   283   2     9.82878    -1.96576    -7.86303
   284   2    -9.82878     1.96576    -7.86303
   285   2    -5.89727     1.96576    -7.86303
   286   2    -1.96576     1.96576    -7.86303
   287   2     1.96576     1.96576    -7.86303
   288   2     5.89727     1.96576    -7.86303
   289   2     9.82878     1.96576    -7.86303
   290   2    -9.82878     5.89727    -7.86303
   291   2    -5.89727     5.89727    -7.86303
   292   2    -1.96576     5.89727    -7.86303
   293   2     1.96576     5.89727    -7.86303
   294   2     5.89727     5.89727    -7.86303
   295   2     9.82878     5.89727    -7.86303
   296   2    -5.89727     9.82878    -7.86303
   297   2    -1.96576     9.82878    -7.86303
   298   2     1.96576     9.82878    -7.86303
   299   2     5.89727     9.82878    -7.86303
   300   2    -1.96576   -13.76030    -3.93151
   301   2     1.96576   -13.76030    -3.93151
   302   2    -9.82878    -9.82878    -3.93151
   303   2    -5.89727    -9.82878    -3.93151
   304   2    -1.96576    -9.82878    -3.93151
   305   2     1.96576    -9.82878    -3.93151
   306   2     5.89727    -9.82878    -3.93151
   307   2     9.82878    -9.82878    -3.93151
   308   2    -9.82878    -5.89727    -3.93151
   309   2    -5.89727    -5.89727    -3.93151
   310   2    -1.96576    -5.89727    -3.93151
   311   2     1.96576    -5.89727    -3.93151
   312   2     5.89727    -5.89727    -3.93151
   313   2     9.82878    -5.89727    -3.93151
   314   2   -13.76030    -1.96576    -3.93151
   315   2    -9.82878    -1.96576    -3.93151
   316   2    -5.89727    -1.96576    -3.93151
   317   2    -1.96576    -1.96576    -3.93151
   318   2     1.96576    -1.96576    -3.93151
   319   2     5.89727    -1.96576    -3.93151
   320   2     9.82878    -1.96576    -3.93151
   321   2    13.76030    -1.96576    -3.93151
   322   2   -13.76030     1.96576    -3.93151
   323   2    -9.82878     1.96576    -3.93151
   324   2    -5.89727     1.96576    -3.93151
   325   2    -1.96576     1.96576    -3.93151
   326   2     1.96576     1.96576    -3.93151
   327   2     5.89727     1.96576    -3.93151
   328   2     9.82878     1.96576    -3.93151
   329   2    13.76030     1.96576    -3.93151
   330   2    -9.82878     5.89727    -3.93151
   331   2    -5.89727     5.89727    -3.93151
   332   2    -1.96576     5.89727    -3.93151
   333   2     1.96576     5.89727    -3.93151
   334   2     5.89727     5.89727    -3.93151
   335   2     9.82878     5.89727    -3.93151
   336   2    -9.82878     9.82878    -3.93151
   337   2    -5.89727     9.82878    -3.93151
   338   2    -1.96576     9.82878    -3.93151
   339   2     1.96576     9.82878    -3.93151
   340   2     5.89727     9.82878    -3.93151
   341   2     9.82878     9.82878    -3.93151
   342   2    -1.96576    13.76030    -3.93151
   343   2     1.96576    13.76030    -3.93151
   344   2    -5.89727   -13.76030     0.00000
   345   2    -1.96576   -13.76030     0.00000
   346   2     1.96576   -13.76030     0.00000
   347   2     5.89727   -13.76030     0.00000
   348   2    -9.82878    -9.82878     0.00000
   349   2    -5.89727    -9.82878     0.00000
   350   2    -1.96576    -9.82878     0.00000
   351   2     1.96576    -9.82878     0.00000
   352   2     5.89727    -9.82878     0.00000
   353   2     9.82878    -9.82878     0.00000
   354   2   -13.76030    -5.89727     0.00000
   355   2    -9.82878    -5.89727     0.00000
   356   2    -5.89727    -5.89727     0.00000
   357   2    -1.96576    -5.89727     0.00000
   358   2     1.96576    -5.89727     0.00000
   359   2     5.89727    -5.89727     0.00000
   360   2     9.82878    -5.89727     0.00000
   361   2    13.76030    -5.89727     0.00000
   362   2   -13.76030    -1.96576     0.00000
   363   2    -9.82878    -1.96576     0.00000
   364   2    -5.89727    -1.96576     0.00000
   365   2    -1.96576    -1.96576     0.00000
   366   2     1.96576    -1.96576     0.00000
   367   2     5.89727    -1.96576     0.00000
   368   2     9.82878    -1.96576     0.00000
   369   2    13.76030    -1.96576     0.00000
   370   2   -13.76030     1.96576     0.00000
   371   2    -9.82878     1.96576     0.00000
   372   2    -5.89727     1.96576     0.00000
   373   2    -1.96576     1.96576     0.00000
   374   2     1.96576     1.96576     0.00000
   375   2     5.89727     1.96576     0.00000
   376   2     9.82878     1.96576     0.00000
   377   2    13.76030     1.96576     0.00000
   378   2   -13.76030     5.89727     0.00000
   379   2    -9.82878     5.89727     0.00000
   380   2    -5.89727     5.89727     0.00000
   381   2    -1.96576     5.89727     0.00000
   382   2     1.96576     5.89727     0.00000
   383   2     5.89727     5.89727     0.00000
   384   2     9.82878     5.89727     0.00000
   385   2    13.76030     5.89727     0.00000
   386   2    -9.82878     9.82878     0.00000
   387   2    -5.89727     9.82878     0.00000
   388   2    -1.96576     9.82878     0.00000
   389   2     1.96576     9.82878     0.00000
   390   2     5.89727     9.82878     0.00000
   391   2     9.82878     9.82878     0.00000
   392   2    -5.89727    13.76030     0.00000
   393   2    -1.96576    13.76030     0.00000
   394   2     1.96576    13.76030     0.00000
   395   2     5.89727    13.76030     0.00000
   396   2    -1.96576   -13.76030     3.93151
   397   2     1.96576   -13.76030     3.93151
   398   2    -9.82878    -9.82878     3.93151
   399   2    -5.89727    -9.82878     3.93151
   400   2    -1.96576    -9.82878     3.93151
   401   2     1.96576    -9.82878     3.93151
   402   2     5.89727    -9.82878     3.93151
   403   2     9.82878    -9.82878     3.93151
   404   2    -9.82878    -5.89727     3.93151
   405   2    -5.89727    -5.89727     3.93151
   406   2    -1.96576    -5.89727     3.93151
   407   2     1.96576    -5.89727     3.93151
   408   2     5.89727    -5.89727     3.93151
   409   2     9.82878    -5.89727     3.93151
   410   2   -13.76030    -1.96576     3.93151
   411   2    -9.82878    -1.96576     3.93151
   412   2    -5.89727    -1.96576     3.93151
   413   2    -1.96576    -1.96576     3.93151
   414   2     1.96576    -1.96576     3.93151
   415   2     5.89727    -1.96576     3.93151
   416   2     9.82878    -1.96576     3.93151
   417   2    13.76030    -1.96576     3.93151
   418   2   -13.76030     1.96576     3.93151
   419   2    -9.82878     1.96576     3.93151
   420   2    -5.89727     1.96576     3.93151
   421   2    -1.96576     1.96576     3.93151
   422   2     1.96576     1.96576     3.93151
   423   2     5.89727     1.96576     3.93151
   424   2     9.82878     1.96576     3.93151
   425   2    13.76030     1.96576     3.93151
   426   2    -9.82878     5.89727     3.93151
   427   2    -5.89727     5.89727     3.93151
   428   2    -1.96576     5.89727     3.93151
   429   2     1.96576     5.89727     3.93151
   430   2     5.89727     5.89727     3.93151
   431   2     9.82878     5.89727     3.93151
   432   2    -9.82878     9.82878     3.93151
   433   2    -5.89727     9.82878     3.93151
   434   2    -1.96576     9.82878     3.93151
   435   2     1.96576     9.82878     3.93151
   436   2     5.89727     9.82878     3.93151
   437   2     9.82878     9.82878     3.93151
   438   2    -1.96576    13.76030     3.93151
   439   2     1.96576    13.76030     3.93151
   440   2    -5.89727    -9.82878     7.86303
   441   2    -1.96576    -9.82878     7.86303
   442   2     1.96576    -9.82878     7.86303
   443   2     5.89727    -9.82878     7.86303
   444   2    -9.82878    -5.89727     7.86303
   445   2    -5.89727    -5.89727     7.86303
   446   2    -1.96576    -5.89727     7.86303
   447   2     1.96576    -5.89727     7.86303
   448   2     5.89727    -5.89727     7.86303
   449   2     9.82878    -5.89727     7.86303
   450   2    -9.82878    -1.96576     7.86303
   451   2    -5.89727    -1.96576     7.86303
   452   2    -1.96576    -1.96576     7.86303
   453   2     1.96576    -1.96576     7.86303
   454   2     5.89727    -1.96576     7.86303
   455   2     9.82878    -1.96576     7.86303
   456   2    -9.82878     1.96576     7.86303
   457   2    -5.89727     1.96576     7.86303
   458   2    -1.96576     1.96576     7.86303
   459   2     1.96576     1.96576     7.86303
   460   2     5.89727     1.96576     7.86303
   461   2     9.82878     1.96576     7.86303
   462   2    -9.82878     5.89727     7.86303
   463   2    -5.89727     5.89727     7.86303
   464   2    -1.96576     5.89727     7.86303
   465   2     1.96576     5.89727     7.86303
   466   2     5.89727     5.89727     7.86303
   467   2     9.82878     5.89727     7.86303
   468   2    -5.89727     9.82878     7.86303
   469   2    -1.96576     9.82878     7.86303
   470   2     1.96576     9.82878     7.86303
   471   2     5.89727     9.82878     7.86303
   472   2    -5.89727    -5.89727    11.79454
   473   2    -1.96576    -5.89727    11.79454
   474   2     1.96576    -5.89727    11.79454
   475   2     5.89727    -5.89727    11.79454
   476   2    -5.89727    -1.96576    11.79454
   477   2    -1.96576    -1.96576    11.79454
   478   2     1.96576    -1.96576    11.79454
   479   2     5.89727    -1.96576    11.79454
   480   2    -5.89727     1.96576    11.79454
   481   2    -1.96576     1.96576    11.79454
   482   2     1.96576     1.96576    11.79454
   483   2     5.89727     1.96576    11.79454
   484   2    -5.89727     5.89727    11.79454
   485   2    -1.96576     5.89727    11.79454
   486   2     1.96576     5.89727    11.79454
   487   2     5.89727     5.89727    11.79454
   488   2    -5.89727   -11.79454    -5.89727
   489   2    -1.96576   -11.79454    -5.89727
   490   2     1.96576   -11.79454    -5.89727
   491   2     5.89727   -11.79454    -5.89727
   492   2    -5.89727   -11.79454    -1.96576
   493   2    -1.96576   -11.79454    -1.96576
   494   2     1.96576   -11.79454    -1.96576
   495   2     5.89727   -11.79454    -1.96576
   496   2    -5.89727   -11.79454     1.96576
   497   2    -1.96576   -11.79454     1.96576
   498   2     1.96576   -11.79454     1.96576
   499   2     5.89727   -11.79454     1.96576
   500   2    -5.89727   -11.79454     5.89727
   501   2    -1.96576   -11.79454     5.89727
   502   2     1.96576   -11.79454     5.89727
   503   2     5.89727   -11.79454     5.89727
   504   2    -5.89727    -7.86303    -9.82878
   505   2    -1.96576    -7.86303    -9.82878
   506   2     1.96576    -7.86303    -9.82878
   507   2     5.89727    -7.86303    -9.82878
   508   2    -9.82878    -7.86303    -5.89727
   509   2    -5.89727    -7.86303    -5.89727
   510   2    -1.96576    -7.86303    -5.89727
   511   2     1.96576    -7.86303    -5.89727
   512   2     5.89727    -7.86303    -5.89727
   513   2     9.82878    -7.86303    -5.89727
   514   2    -9.82878    -7.86303    -1.96576
   515   2    -5.89727    -7.86303    -1.96576
   516   2    -1.96576    -7.86303    -1.96576
   517   2     1.96576    -7.86303    -1.96576
   518   2     5.89727    -7.86303    -1.96576
   519   2     9.82878    -7.86303    -1.96576
   520   2    -9.82878    -7.86303     1.96576
   521   2    -5.89727    -7.86303     1.96576
   522   2    -1.96576    -7.86303     1.96576
   523   2     1.96576    -7.86303     1.96576
   524   2     5.89727    -7.86303     1.96576
   525   2     9.82878    -7.86303     1.96576
   526   2    -9.82878    -7.86303     5.89727
   527   2    -5.89727    -7.86303     5.89727
   528   2    -1.96576    -7.86303     5.89727
   529   2     1.96576    -7.86303     5.89727
   530   2     5.89727    -7.86303     5.89727
   531   2     9.82878    -7.86303     5.89727
   532   2    -5.89727    -7.86303     9.82878
   533   2    -1.96576    -7.86303     9.82878
   534   2     1.96576    -7.86303     9.82878
   535   2     5.89727    -7.86303     9.82878
   536   2    -1.96576    -3.93151   -13.76030
   537   2     1.96576    -3.93151   -13.76030
   538   2    -9.82878    -3.93151    -9.82878
   539   2    -5.89727    -3.93151    -9.82878
   540   2    -1.96576    -3.93151    -9.82878
   541   2     1.96576    -3.93151    -9.82878
   542   2     5.89727    -3.93151    -9.82878
   543   2     9.82878    -3.93151    -9.82878
   544   2    -9.82878    -3.93151    -5.89727
   545   2    -5.89727    -3.93151    -5.89727
   546   2    -1.96576    -3.93151    -5.89727
   547   2     1.96576    -3.93151    -5.89727
   548   2     5.89727    -3.93151    -5.89727
   549   2     9.82878    -3.93151    -5.89727
   550   2   -13.76030    -3.93151    -1.96576
   551   2    -9.82878    -3.93151    -1.96576
   552   2    -5.89727    -3.93151    -1.96576
   553   2    -1.96576    -3.93151    -1.96576
   554   2     1.96576    -3.93151    -1.96576
   555   2     5.89727    -3.93151    -1.96576
   556   2     9.82878    -3.93151    -1.96576
   557   2    13.76030    -3.93151    -1.96576
   558   2   -13.76030    -3.93151     1.96576
   559   2    -9.82878    -3.93151     1.96576
   560   2    -5.89727    -3.93151     1.96576
   561   2    -1.96576    -3.93151     1.96576
   562   2     1.96576    -3.93151     1.96576
   563   2     5.89727    -3.93151     1.96576
   564   2     9.82878    -3.93151     1.96576
   565   2    13.76030    -3.93151     1.96576
   566   2    -9.82878    -3.93151     5.89727
   567   2    -5.89727    -3.93151     5.89727
   568   2    -1.96576    -3.93151     5.89727
   569   2     1.96576    -3.93151     5.89727
   570   2     5.89727    -3.93151     5.89727
   571   2     9.82878    -3.93151     5.89727
   572   2    -9.82878    -3.93151     9.82878
   573   2    -5.89727    -3.93151     9.82878
   574   2    -1.96576    -3.93151     9.82878
   575   2     1.96576    -3.93151     9.82878
   576   2     5.89727    -3.93151     9.82878
   577   2     9.82878    -3.93151     9.82878
   578   2    -1.96576    -3.93151    13.76030
   579   2     1.96576    -3.93151    13.76030
   580   2    -5.89727     0.00000   -13.76030
   581   2    -1.96576     0.00000   -13.76030
   582   2     1.96576     0.00000   -13.76030
   583   2     5.89727     0.00000   -13.76030
   584   2    -9.82878     0.00000    -9.82878
   585   2    -5.89727     0.00000    -9.82878
   586   2    -1.96576     0.00000    -9.82878
   587   2     1.96576     0.00000    -9.82878
   588   2     5.89727     0.00000    -9.82878
   589   2     9.82878     0.00000    -9.82878
   590   2   -13.76030     0.00000    -5.89727
   591   2    -9.82878     0.00000    -5.89727
   592   2    -5.89727     0.00000    -5.89727
   593   2    -1.96576     0.00000    -5.89727
   594   2     1.96576     0.00000    -5.89727
   595   2     5.89727     0.00000    -5.89727
   596   2     9.82878     0.00000    -5.89727
   597   2    13.76030     0.00000    -5.89727
   598   2   -13.76030     0.00000    -1.96576
   599   2    -9.82878     0.00000    -1.96576
   600   2    -5.89727     0.00000    -1.96576
   601   2    -1.96576     0.00000    -1.96576
   602   2     1.96576     0.00000    -1.96576
   603   2     5.89727     0.00000    -1.96576
   604   2     9.82878     0.00000    -1.96576
   605   2    13.76030     0.00000    -1.96576
   606   2   -13.76030     0.00000     1.96576
   607   2    -9.82878     0.00000     1.96576
   608   2    -5.89727     0.00000     1.96576
   609   2    -1.96576     0.00000     1.96576
   610   2     1.96576     0.00000     1.96576
   611   2     5.89727     0.00000     1.96576
   612   2     9.82878     0.00000     1.96576
   613   2    13.76030     0.00000     1.96576
   614   2   -13.76030     0.00000     5.89727
   615   2    -9.82878     0.00000     5.89727
   616   2    -5.89727     0.00000     5.89727
   617   2    -1.96576     0.00000     5.89727
   618   2     1.96576     0.00000     5.89727
   619   2     5.89727     0.00000     5.89727
   620   2     9.82878     0.00000     5.89727
   621   2    13.76030     0.00000     5.89727
   622   2    -9.82878     0.00000     9.82878
   623   2    -5.89727     0.00000     9.82878
   624   2    -1.96576     0.00000     9.82878
   625   2     1.96576     0.00000     9.82878
   626   2     5.89727     0.00000     9.82878
   627   2     9.82878     0.00000     9.82878
   628   2    -5.89727     0.00000    13.76030
   629   2    -1.96576     0.00000    13.76030
   630   2     1.96576     0.00000    13.76030
   631   2     5.89727     0.00000    13.76030
   632   2    -1.96576     3.93151   -13.76030
   633   2     1.96576     3.93151   -13.76030
   634   2    -9.82878     3.93151    -9.82878