LAMMPS DATA FOR MEAM SIMULATION

   1168   atoms
      2   atom types

  -24.09   24.09   xlo xhi
  -24.09   24.09   ylo yhi
  -24.09   24.09   zlo zhi

 Atoms

     1   2    -5.28209    -5.28209   -12.32487
     2   2    -1.76070    -5.28209   -12.32487
     3   2     1.76070    -5.28209   -12.32487
     4   2     5.28209    -5.28209   -12.32487
     5   2    -5.28209    -1.76070   -12.32487
     6   2    -1.76070    -1.76070   -12.32487
     7   2     1.76070    -1.76070   -12.32487
     8   2     5.28209    -1.76070   -12.32487
     9   2    -5.28209     1.76070   -12.32487
    10   2    -1.76070     1.76070   -12.32487
    11   2     1.76070     1.76070   -12.32487
    12   2     5.28209     1.76070   -12.32487
    13   2    -5.28209     5.28209   -12.32487
    14   2    -1.76070     5.28209   -12.32487
    15   2     1.76070     5.28209   -12.32487
    16   2     5.28209     5.28209   -12.32487
    17   2    -5.28209    -8.80348    -8.80348
    18   2    -1.76070    -8.80348    -8.80348
    19   2     1.76070    -8.80348    -8.80348
    20   2     5.28209    -8.80348    -8.80348
    21   2    -8.80348    -5.28209    -8.80348
    22   2    -5.28209    -5.28209    -8.80348
    23   1    -1.76070    -5.28209    -8.80348
    24   1     1.76070    -5.28209    -8.80348
    25   2     5.28209    -5.28209    -8.80348
    26   2     8.80348    -5.28209    -8.80348
    27   2    -8.80348    -1.76070    -8.80348
    28   1    -5.28209    -1.76070    -8.80348
    29   1    -1.76070    -1.76070    -8.80348
    30   1     1.76070    -1.76070    -8.80348
    31   1     5.28209    -1.76070    -8.80348
    32   2     8.80348    -1.76070    -8.80348
    33   2    -8.80348     1.76070    -8.80348
    34   1    -5.28209     1.76070    -8.80348
    35   1    -1.76070     1.76070    -8.80348
    36   1     1.76070     1.76070    -8.80348
    37   1     5.28209     1.76070    -8.80348
    38   2     8.80348     1.76070    -8.80348
    39   2    -8.80348     5.28209    -8.80348
    40   2    -5.28209     5.28209    -8.80348
    41   1    -1.76070     5.28209    -8.80348
    42   1     1.76070     5.28209    -8.80348
    43   2     5.28209     5.28209    -8.80348
    44   2     8.80348     5.28209    -8.80348
    45   2    -5.28209     8.80348    -8.80348
    46   2    -1.76070     8.80348    -8.80348
    47   2     1.76070     8.80348    -8.80348
    48   2     5.28209     8.80348    -8.80348
    49   2    -5.28209   -12.32487    -5.28209
    50   2    -1.76070   -12.32487    -5.28209
    51   2     1.76070   -12.32487    -5.28209
    52   2     5.28209   -12.32487    -5.28209
    53   2    -8.80348    -8.80348    -5.28209
    54   2    -5.28209    -8.80348    -5.28209
    55   1    -1.76070    -8.80348    -5.28209
    56   1     1.76070    -8.80348    -5.28209
    57   2     5.28209    -8.80348    -5.28209
    58   2     8.80348    -8.80348    -5.28209
    59   2   -12.32487    -5.28209    -5.28209
    60   2    -8.80348    -5.28209    -5.28209
    61   1    -5.28209    -5.28209    -5.28209
    62   1    -1.76070    -5.28209    -5.28209
    63   1     1.76070    -5.28209    -5.28209
    64   1     5.28209    -5.28209    -5.28209
    65   2     8.80348    -5.28209    -5.28209
    66   2    12.32487    -5.28209    -5.28209
    67   2   -12.32487    -1.76070    -5.28209
    68   1    -8.80348    -1.76070    -5.28209
    69   1    -5.28209    -1.76070    -5.28209
    70   1    -1.76070    -1.76070    -5.28209
    71   1     1.76070    -1.76070    -5.28209
    72   1     5.28209    -1.76070    -5.28209
    73   1     8.80348    -1.76070    -5.28209
    74   2    12.32487    -1.76070    -5.28209
    75   2   -12.32487     1.76070    -5.28209
    76   1    -8.80348     1.76070    -5.28209
    77   1    -5.28209     1.76070    -5.28209
    78   1    -1.76070     1.76070    -5.28209
    79   1     1.76070     1.76070    -5.28209
    80   1     5.28209     1.76070    -5.28209
    81   1     8.80348     1.76070    -5.28209
    82   2    12.32487     1.76070    -5.28209
    83   2   -12.32487     5.28209    -5.28209
    84   2    -8.80348     5.28209    -5.28209
    85   1    -5.28209     5.28209    -5.28209
    86   1    -1.76070     5.28209    -5.28209
    87   1     1.76070     5.28209    -5.28209
    88   1     5.28209     5.28209    -5.28209
    89   2     8.80348     5.28209    -5.28209
    90   2    12.32487     5.28209    -5.28209
    91   2    -8.80348     8.80348    -5.28209
    92   2    -5.28209     8.80348    -5.28209
    93   1    -1.76070     8.80348    -5.28209
    94   1     1.76070     8.80348    -5.28209
    95   2     5.28209     8.80348    -5.28209
    96   2     8.80348     8.80348    -5.28209
    97   2    -5.28209    12.32487    -5.28209
    98   2    -1.76070    12.32487    -5.28209
    99   2     1.76070    12.32487    -5.28209
   100   2     5.28209    12.32487    -5.28209
   101   2    -5.28209   -12.32487    -1.76070
   102   2    -1.76070   -12.32487    -1.76070
   103   2     1.76070   -12.32487    -1.76070
   104   2     5.28209   -12.32487    -1.76070
   105   2    -8.80348    -8.80348    -1.76070
   106   1    -5.28209    -8.80348    -1.76070
   107   1    -1.76070    -8.80348    -1.76070
   108   1     1.76070    -8.80348    -1.76070
   109   1     5.28209    -8.80348    -1.76070
   110   2     8.80348    -8.80348    -1.76070
   111   2   -12.32487    -5.28209    -1.76070
   112   1    -8.80348    -5.28209    -1.76070
   113   1    -5.28209    -5.28209    -1.76070
   114   1    -1.76070    -5.28209    -1.76070
   115   1     1.76070    -5.28209    -1.76070
   116   1     5.28209    -5.28209    -1.76070
   117   1     8.80348    -5.28209    -1.76070
   118   2    12.32487    -5.28209    -1.76070
   119   2   -12.32487    -1.76070    -1.76070
   120   1    -8.80348    -1.76070    -1.76070
   121   1    -5.28209    -1.76070    -1.76070
   122   1    -1.76070    -1.76070    -1.76070
   123   1     1.76070    -1.76070    -1.76070
   124   1     5.28209    -1.76070    -1.76070
   125   1     8.80348    -1.76070    -1.76070
   126   2    12.32487    -1.76070    -1.76070
   127   2   -12.32487     1.76070    -1.76070
   128   1    -8.80348     1.76070    -1.76070
   129   1    -5.28209     1.76070    -1.76070
   130   1    -1.76070     1.76070    -1.76070
   131   1     1.76070     1.76070    -1.76070
   132   1     5.28209     1.76070    -1.76070
   133   1     8.80348     1.76070    -1.76070
   134   2    12.32487     1.76070    -1.76070
   135   2   -12.32487     5.28209    -1.76070
   136   1    -8.80348     5.28209    -1.76070
   137   1    -5.28209     5.28209    -1.76070
   138   1    -1.76070     5.28209    -1.76070
   139   1     1.76070     5.28209    -1.76070
   140   1     5.28209     5.28209    -1.76070
   141   1     8.80348     5.28209    -1.76070
   142   2    12.32487     5.28209    -1.76070
   143   2    -8.80348     8.80348    -1.76070
   144   1    -5.28209     8.80348    -1.76070
   145   1    -1.76070     8.80348    -1.76070
   146   1     1.76070     8.80348    -1.76070
   147   1     5.28209     8.80348    -1.76070
   148   2     8.80348     8.80348    -1.76070
   149   2    -5.28209    12.32487    -1.76070
   150   2    -1.76070    12.32487    -1.76070
   151   2     1.76070    12.32487    -1.76070
   152   2     5.28209    12.32487    -1.76070
   153   2    -5.28209   -12.32487     1.76070
   154   2    -1.76070   -12.32487     1.76070
   155   2     1.76070   -12.32487     1.76070
   156   2     5.28209   -12.32487     1.76070
   157   2    -8.80348    -8.80348     1.76070
   158   1    -5.28209    -8.80348     1.76070
   159   1    -1.76070    -8.80348     1.76070
   160   1     1.76070    -8.80348     1.76070
   161   1     5.28209    -8.80348     1.76070
   162   2     8.80348    -8.80348     1.76070
   163   2   -12.32487    -5.28209     1.76070
   164   1    -8.80348    -5.28209     1.76070
   165   1    -5.28209    -5.28209     1.76070
   166   1    -1.76070    -5.28209     1.76070
   167   1     1.76070    -5.28209     1.76070
   168   1     5.28209    -5.28209     1.76070
   169   1     8.80348    -5.28209     1.76070
   170   2    12.32487    -5.28209     1.76070
   171   2   -12.32487    -1.76070     1.76070
   172   1    -8.80348    -1.76070     1.76070
   173   1    -5.28209    -1.76070     1.76070
   174   1    -1.76070    -1.76070     1.76070
   175   1     1.76070    -1.76070     1.76070
   176   1     5.28209    -1.76070     1.76070
   177   1     8.80348    -1.76070     1.76070
   178   2    12.32487    -1.76070     1.76070
   179   2   -12.32487     1.76070     1.76070
   180   1    -8.80348     1.76070     1.76070
   181   1    -5.28209     1.76070     1.76070
   182   1    -1.76070     1.76070     1.76070
   183   1     1.76070     1.76070     1.76070
   184   1     5.28209     1.76070     1.76070
   185   1     8.80348     1.76070     1.76070
   186   2    12.32487     1.76070     1.76070
   187   2   -12.32487     5.28209     1.76070
   188   1    -8.80348     5.28209     1.76070
   189   1    -5.28209     5.28209     1.76070
   190   1    -1.76070     5.28209     1.76070
   191   1     1.76070     5.28209     1.76070
   192   1     5.28209     5.28209     1.76070
   193   1     8.80348     5.28209     1.76070
   194   2    12.32487     5.28209     1.76070
   195   2    -8.80348     8.80348     1.76070
   196   1    -5.28209     8.80348     1.76070
   197   1    -1.76070     8.80348     1.76070
   198   1     1.76070     8.80348     1.76070
   199   1     5.28209     8.80348     1.76070
   200   2     8.80348     8.80348     1.76070
   201   2    -5.28209    12.32487     1.76070
   202   2    -1.76070    12.32487     1.76070
   203   2     1.76070    12.32487     1.76070
   204   2     5.28209    12.32487     1.76070
   205   2    -5.28209   -12.32487     5.28209
   206   2    -1.76070   -12.32487     5.28209
   207   2     1.76070   -12.32487     5.28209
   208   2     5.28209   -12.32487     5.28209
   209   2    -8.80348    -8.80348     5.28209
   210   2    -5.28209    -8.80348     5.28209
   211   1    -1.76070    -8.80348     5.28209
   212   1     1.76070    -8.80348     5.28209
   213   2     5.28209    -8.80348     5.28209
   214   2     8.80348    -8.80348     5.28209
   215   2   -12.32487    -5.28209     5.28209
   216   2    -8.80348    -5.28209     5.28209
   217   1    -5.28209    -5.28209     5.28209
   218   1    -1.76070    -5.28209     5.28209
   219   1     1.76070    -5.28209     5.28209
   220   1     5.28209    -5.28209     5.28209
   221   2     8.80348    -5.28209     5.28209
   222   2    12.32487    -5.28209     5.28209
   223   2   -12.32487    -1.76070     5.28209
   224   1    -8.80348    -1.76070     5.28209
   225   1    -5.28209    -1.76070     5.28209
   226   1    -1.76070    -1.76070     5.28209
   227   1     1.76070    -1.76070     5.28209
   228   1     5.28209    -1.76070     5.28209
   229   1     8.80348    -1.76070     5.28209
   230   2    12.32487    -1.76070     5.28209
   231   2   -12.32487     1.76070     5.28209
   232   1    -8.80348     1.76070     5.28209
   233   1    -5.28209     1.76070     5.28209
   234   1    -1.76070     1.76070     5.28209
   235   1     1.76070     1.76070     5.28209
   236   1     5.28209     1.76070     5.28209
   237   1     8.80348     1.76070     5.28209
   238   2    12.32487     1.76070     5.28209
   239   2   -12.32487     5.28209     5.28209
   240   2    -8.80348     5.28209     5.28209
   241   1    -5.28209     5.28209     5.28209
   242   1    -1.76070     5.28209     5.28209
   243   1     1.76070     5.28209     5.28209
   244   1     5.28209     5.28209     5.28209
   245   2     8.80348     5.28209     5.28209
   246   2    12.32487     5.28209     5.28209
   247   2    -8.80348     8.80348     5.28209
   248   2    -5.28209     8.80348     5.28209
   249   1    -1.76070     8.80348     5.28209
   250   1     1.76070     8.80348     5.28209
   251   2     5.28209     8.80348     5.28209
   252   2     8.80348     8.80348     5.28209
   253   2    -5.28209    12.32487     5.28209
   254   2    -1.76070    12.32487     5.28209
   255   2     1.76070    12.32487     5.28209
   256   2     5.28209    12.32487     5.28209
   257   2    -5.28209    -8.80348     8.80348
   258   2    -1.76070    -8.80348     8.80348
   259   2     1.76070    -8.80348     8.80348
   260   2     5.28209    -8.80348     8.80348
   261   2    -8.80348    -5.28209     8.80348
   262   2    -5.28209    -5.28209     8.80348
   263   1    -1.76070    -5.28209     8.80348
   264   1     1.76070    -5.28209     8.80348
   265   2     5.28209    -5.28209     8.80348
   266   2     8.80348    -5.28209     8.80348
   267   2    -8.80348    -1.76070     8.80348
   268   1    -5.28209    -1.76070     8.80348
   269   1    -1.76070    -1.76070     8.80348
   270   1     1.76070    -1.76070     8.80348
   271   1     5.28209    -1.76070     8.80348
   272   2     8.80348    -1.76070     8.80348
   273   2    -8.80348     1.76070     8.80348
   274   1    -5.28209     1.76070     8.80348
   275   1    -1.76070     1.76070     8.80348
   276   1     1.76070     1.76070     8.80348
   277   1     5.28209     1.76070     8.80348
   278   2     8.80348     1.76070     8.80348
   279   2    -8.80348     5.28209     8.80348
   280   2    -5.28209     5.28209     8.80348
   281   1    -1.76070     5.28209     8.80348
   282   1     1.76070     5.28209     8.80348
   283   2     5.28209     5.28209     8.80348
   284   2     8.80348     5.28209     8.80348
   285   2    -5.28209     8.80348     8.80348
   286   2    -1.76070     8.80348     8.80348
   287   2     1.76070     8.80348     8.80348
   288   2     5.28209     8.80348     8.80348
   289   2    -5.28209    -5.28209    12.32487
   290   2    -1.76070    -5.28209    12.32487
   291   2     1.76070    -5.28209    12.32487
   292   2     5.28209    -5.28209    12.32487
   293   2    -5.28209    -1.76070    12.32487
   294   2    -1.76070    -1.76070    12.32487
   295   2     1.76070    -1.76070    12.32487
   296   2     5.28209    -1.76070    12.32487
   297   2    -5.28209     1.76070    12.32487
   298   2    -1.76070     1.76070    12.32487
   299   2     1.76070     1.76070    12.32487
   300   2     5.28209     1.76070    12.32487
   301   2    -5.28209     5.28209    12.32487
   302   2    -1.76070     5.28209    12.32487
   303   2     1.76070     5.28209    12.32487
   304   2     5.28209     5.28209    12.32487
   305   2     0.00000    -7.04278   -12.32487
   306   2    -3.52139    -3.52139   -12.32487
   307   2     0.00000    -3.52139   -12.32487
   308   2     3.52139    -3.52139   -12.32487
   309   2    -7.04278     0.00000   -12.32487
   310   2    -3.52139     0.00000   -12.32487
   311   2     0.00000     0.00000   -12.32487
   312   2     3.52139     0.00000   -12.32487
   313   2     7.04278     0.00000   -12.32487
   314   2    -3.52139     3.52139   -12.32487
   315   2     0.00000     3.52139   -12.32487
   316   2     3.52139     3.52139   -12.32487
   317   2     0.00000     7.04278   -12.32487
   318   2    -3.52139   -10.56418    -8.80348
   319   2     0.00000   -10.56418    -8.80348
   320   2     3.52139   -10.56418    -8.80348
   321   2    -7.04278    -7.04278    -8.80348
   322   2    -3.52139    -7.04278    -8.80348
   323   1     0.00000    -7.04278    -8.80348
   324   2     3.52139    -7.04278    -8.80348
   325   2     7.04278    -7.04278    -8.80348
   326   2   -10.56418    -3.52139    -8.80348
   327   2    -7.04278    -3.52139    -8.80348
   328   1    -3.52139    -3.52139    -8.80348
   329   1     0.00000    -3.52139    -8.80348
   330   1     3.52139    -3.52139    -8.80348
   331   2     7.04278    -3.52139    -8.80348
   332   2    10.56418    -3.52139    -8.80348
   333   2   -10.56418     0.00000    -8.80348
   334   1    -7.04278     0.00000    -8.80348
   335   1    -3.52139     0.00000    -8.80348
   336   1     0.00000     0.00000    -8.80348
   337   1     3.52139     0.00000    -8.80348
   338   1     7.04278     0.00000    -8.80348
   339   2    10.56418     0.00000    -8.80348
   340   2   -10.56418     3.52139    -8.80348
   341   2    -7.04278     3.52139    -8.80348
   342   1    -3.52139     3.52139    -8.80348
   343   1     0.00000     3.52139    -8.80348
   344   1     3.52139     3.52139    -8.80348
   345   2     7.04278     3.52139    -8.80348
   346   2    10.56418     3.52139    -8.80348
   347   2    -7.04278     7.04278    -8.80348
   348   2    -3.52139     7.04278    -8.80348
   349   1     0.00000     7.04278    -8.80348
   350   2     3.52139     7.04278    -8.80348
   351   2     7.04278     7.04278    -8.80348
   352   2    -3.52139    10.56418    -8.80348
   353   2     0.00000    10.56418    -8.80348
   354   2     3.52139    10.56418    -8.80348
   355   2    -7.04278   -10.56418    -5.28209
   356   2    -3.52139   -10.56418    -5.28209
   357   2     0.00000   -10.56418    -5.28209
   358   2     3.52139   -10.56418    -5.28209
   359   2     7.04278   -10.56418    -5.28209
   360   2   -10.56418    -7.04278    -5.28209
   361   1    -7.04278    -7.04278    -5.28209
   362   1    -3.52139    -7.04278    -5.28209
   363   1     0.00000    -7.04278    -5.28209
   364   1     3.52139    -7.04278    -5.28209
   365   1     7.04278    -7.04278    -5.28209
   366   2    10.56418    -7.04278    -5.28209
   367   2   -10.56418    -3.52139    -5.28209
   368   1    -7.04278    -3.52139    -5.28209
   369   1    -3.52139    -3.52139    -5.28209
   370   1     0.00000    -3.52139    -5.28209
   371   1     3.52139    -3.52139    -5.28209
   372   1     7.04278    -3.52139    -5.28209
   373   2    10.56418    -3.52139    -5.28209
   374   2   -10.56418     0.00000    -5.28209
   375   1    -7.04278     0.00000    -5.28209
   376   1    -3.52139     0.00000    -5.28209
   377   1     0.00000     0.00000    -5.28209
   378   1     3.52139     0.00000    -5.28209
   379   1     7.04278     0.00000    -5.28209
   380   2    10.56418     0.00000    -5.28209
   381   2   -10.56418     3.52139    -5.28209
   382   1    -7.04278     3.52139    -5.28209
   383   1    -3.52139     3.52139    -5.28209
   384   1     0.00000     3.52139    -5.28209
   385   1     3.52139     3.52139    -5.28209
   386   1     7.04278     3.52139    -5.28209
   387   2    10.56418     3.52139    -5.28209
   388   2   -10.56418     7.04278    -5.28209
   389   1    -7.04278     7.04278    -5.28209
   390   1    -3.52139     7.04278    -5.28209
   391   1     0.00000     7.04278    -5.28209
   392   1     3.52139     7.04278    -5.28209
   393   1     7.04278     7.04278    -5.28209
   394   2    10.56418     7.04278    -5.28209
   395   2    -7.04278    10.56418    -5.28209
   396   2    -3.52139    10.56418    -5.28209
   397   2     0.00000    10.56418    -5.28209
   398   2     3.52139    10.56418    -5.28209
   399   2     7.04278    10.56418    -5.28209
   400   2     0.00000   -14.08557    -1.76070
   401   2    -7.04278   -10.56418    -1.76070
   402   1    -3.52139   -10.56418    -1.76070
   403   1     0.00000   -10.56418    -1.76070
   404   1     3.52139   -10.56418    -1.76070
   405   2     7.04278   -10.56418    -1.76070
   406   2   -10.56418    -7.04278    -1.76070
   407   1    -7.04278    -7.04278    -1.76070
   408   1    -3.52139    -7.04278    -1.76070
   409   1     0.00000    -7.04278    -1.76070
   410   1     3.52139    -7.04278    -1.76070
   411   1     7.04278    -7.04278    -1.76070
   412   2    10.56418    -7.04278    -1.76070
   413   1   -10.56418    -3.52139    -1.76070
   414   1    -7.04278    -3.52139    -1.76070
   415   1    -3.52139    -3.52139    -1.76070
   416   1     0.00000    -3.52139    -1.76070
   417   1     3.52139    -3.52139    -1.76070
   418   1     7.04278    -3.52139    -1.76070
   419   1    10.56418    -3.52139    -1.76070
   420   2   -14.08557     0.00000    -1.76070
   421   1   -10.56418     0.00000    -1.76070
   422   1    -7.04278     0.00000    -1.76070
   423   1    -3.52139     0.00000    -1.76070
   424   1     0.00000     0.00000    -1.76070
   425   1     3.52139     0.00000    -1.76070
   426   1     7.04278     0.00000    -1.76070
   427   1    10.56418     0.00000    -1.76070
   428   2    14.08557     0.00000    -1.76070
   429   1   -10.56418     3.52139    -1.76070
   430   1    -7.04278     3.52139    -1.76070
   431   1    -3.52139     3.52139    -1.76070
   432   1     0.00000     3.52139    -1.76070
   433   1     3.52139     3.52139    -1.76070
   434   1     7.04278     3.52139    -1.76070
   435   1    10.56418     3.52139    -1.76070
   436   2   -10.56418     7.04278    -1.76070
   437   1    -7.04278     7.04278    -1.76070
   438   1    -3.52139     7.04278    -1.76070
   439   1     0.00000     7.04278    -1.76070
   440   1     3.52139     7.04278    -1.76070
   441   1     7.04278     7.04278    -1.76070
   442   2    10.56418     7.04278    -1.76070
   443   2    -7.04278    10.56418    -1.76070
   444   1    -3.52139    10.56418    -1.76070
   445   1     0.00000    10.56418    -1.76070
   446   1     3.52139    10.56418    -1.76070
   447   2     7.04278    10.56418    -1.76070
   448   2     0.00000    14.08557    -1.76070
   449   2     0.00000   -14.08557     1.76070
   450   2    -7.04278   -10.56418     1.76070
   451   1    -3.52139   -10.56418     1.76070
   452   1     0.00000   -10.56418     1.76070
   453   1     3.52139   -10.56418     1.76070
   454   2     7.04278   -10.56418     1.76070
   455   2   -10.56418    -7.04278     1.76070
   456   1    -7.04278    -7.04278     1.76070
   457   1    -3.52139    -7.04278     1.76070
   458   1     0.00000    -7.04278     1.76070
   459   1     3.52139    -7.04278     1.76070
   460   1     7.04278    -7.04278     1.76070
   461   2    10.56418    -7.04278     1.76070
   462   1   -10.56418    -3.52139     1.76070
   463   1    -7.04278    -3.52139     1.76070
   464   1    -3.52139    -3.52139     1.76070
   465   1     0.00000    -3.52139     1.76070
   466   1     3.52139    -3.52139     1.76070
   467   1     7.04278    -3.52139     1.76070
   468   1    10.56418    -3.52139     1.76070
   469   2   -14.08557     0.00000     1.76070
   470   1   -10.56418     0.00000     1.76070
   471   1    -7.04278     0.00000     1.76070
   472   1    -3.52139     0.00000     1.76070
   473   1     0.00000     0.00000     1.76070
   474   1     3.52139     0.00000     1.76070
   475   1     7.04278     0.00000     1.76070
   476   1    10.56418     0.00000     1.76070
   477   2    14.08557     0.00000     1.76070
   478   1   -10.56418     3.52139     1.76070
   479   1    -7.04278     3.52139     1.76070
   480   1    -3.52139     3.52139     1.76070
   481   1     0.00000     3.52139     1.76070
   482   1     3.52139     3.52139     1.76070
   483   1     7.04278     3.52139     1.76070
   484   1    10.56418     3.52139     1.76070
   485   2   -10.56418     7.04278     1.76070
   486   1    -7.04278     7.04278     1.76070
   487   1    -3.52139     7.04278     1.76070
   488   1     0.00000     7.04278     1.76070
   489   1     3.52139     7.04278     1.76070
   490   1     7.04278     7.04278     1.76070
   491   2    10.56418     7.04278     1.76070
   492   2    -7.04278    10.56418     1.76070
   493   1    -3.52139    10.56418     1.76070
   494   1     0.00000    10.56418     1.76070
   495   1     3.52139    10.56418     1.76070
   496   2     7.04278    10.56418     1.76070
   497   2     0.00000    14.08557     1.76070
   498   2    -7.04278   -10.56418     5.28209
   499   2    -3.52139   -10.56418     5.28209
   500   2     0.00000   -10.56418     5.28209
   501   2     3.52139   -10.56418     5.28209
   502   2     7.04278   -10.56418     5.28209
   503   2   -10.56418    -7.04278     5.28209
   504   1    -7.04278    -7.04278     5.28209
   505   1    -3.52139    -7.04278     5.28209
   506   1     0.00000    -7.04278     5.28209
   507   1     3.52139    -7.04278     5.28209
   508   1     7.04278    -7.04278     5.28209
   509   2    10.56418    -7.04278     5.28209
   510   2   -10.56418    -3.52139     5.28209
   511   1    -7.04278    -3.52139     5.28209
   512   1    -3.52139    -3.52139     5.28209
   513   1     0.00000    -3.52139     5.28209
   514   1     3.52139    -3.52139     5.28209
   515   1     7.04278    -3.52139     5.28209
   516   2    10.56418    -3.52139     5.28209
   517   2   -10.56418     0.00000     5.28209
   518   1    -7.04278     0.00000     5.28209
   519   1    -3.52139     0.00000     5.28209
   520   1     0.00000     0.00000     5.28209
   521   1     3.52139     0.00000     5.28209
   522   1     7.04278     0.00000     5.28209
   523   2    10.56418     0.00000     5.28209
   524   2   -10.56418     3.52139     5.28209
   525   1    -7.04278     3.52139     5.28209
   526   1    -3.52139     3.52139     5.28209
   527   1     0.00000     3.52139     5.28209
   528   1     3.52139     3.52139     5.28209
   529   1     7.04278     3.52139     5.28209
   530   2    10.56418     3.52139     5.28209
   531   2   -10.56418     7.04278     5.28209
   532   1    -7.04278     7.04278     5.28209
   533   1    -3.52139     7.04278     5.28209
   534   1     0.00000     7.04278     5.28209
   535   1     3.52139     7.04278     5.28209
   536   1     7.04278     7.04278     5.28209
   537   2    10.56418     7.04278     5.28209
   538   2    -7.04278    10.56418     5.28209
   539   2    -3.52139    10.56418     5.28209
   540   2     0.00000    10.56418     5.28209
   541   2     3.52139    10.56418     5.28209
   542   2     7.04278    10.56418     5.28209
   543   2    -3.52139   -10.56418     8.80348
   544   2     0.00000   -10.56418     8.80348
   545   2     3.52139   -10.56418     8.80348
   546   2    -7.04278    -7.04278     8.80348
   547   2    -3.52139    -7.04278     8.80348
   548   1     0.00000    -7.04278     8.80348
   549   2     3.52139    -7.04278     8.80348
   550   2     7.04278    -7.04278     8.80348
   551   2   -10.56418    -3.52139     8.80348
   552   2    -7.04278    -3.52139     8.80348
   553   1    -3.52139    -3.52139     8.80348
   554   1     0.00000    -3.52139     8.80348
   555   1     3.52139    -3.52139     8.80348
   556   2     7.04278    -3.52139     8.80348
   557   2    10.56418    -3.52139     8.80348
   558   2   -10.56418     0.00000     8.80348
   559   1    -7.04278     0.00000     8.80348
   560   1    -3.52139     0.00000     8.80348
   561   1     0.00000     0.00000     8.80348
   562   1     3.52139     0.00000     8.80348
   563   1     7.04278     0.00000     8.80348
   564   2    10.56418     0.00000     8.80348
   565   2   -10.56418     3.52139     8.80348
   566   2    -7.04278     3.52139     8.80348
   567   1    -3.52139     3.52139     8.80348
   568   1     0.00000     3.52139     8.80348
   569   1     3.52139     3.52139     8.80348
   570   2     7.04278     3.52139     8.80348
   571   2    10.56418     3.52139     8.80348
   572   2    -7.04278     7.04278     8.80348
   573   2    -3.52139     7.04278     8.80348
   574   1     0.00000     7.04278     8.80348
   575   2     3.52139     7.04278     8.80348
   576   2     7.04278     7.04278     8.80348
   577   2    -3.52139    10.56418     8.80348
   578   2     0.00000    10.56418     8.80348
   579   2     3.52139    10.56418     8.80348
   580   2     0.00000    -7.04278    12.32487
   581   2    -3.52139    -3.52139    12.32487
   582   2     0.00000    -3.52139    12.32487
   583   2     3.52139    -3.52139    12.32487
   584   2    -7.04278     0.00000    12.32487
   585   2    -3.52139     0.00000    12.32487
   586   2     0.00000     0.00000    12.32487
   587   2     3.52139     0.00000    12.32487
   588   2     7.04278     0.00000    12.32487
   589   2    -3.52139     3.52139    12.32487
   590   2     0.00000     3.52139    12.32487
   591   2     3.52139     3.52139    12.32487
   592   2     0.00000     7.04278    12.32487
   593   2     0.00000   -12.32487    -7.04278
   594   2    -3.52139   -12.32487    -3.52139
   595   2     0.00000   -12.32487    -3.52139
   596   2     3.52139   -12.32487    -3.52139
   597   2    -7.04278   -12.32487     0.00000
   598   2    -3.52139   -12.32487     0.00000
   599   2     0.00000   -12.32487     0.00000
   600   2     3.52139   -12.32487     0.00000
   601   2     7.04278   -12.32487     0.00000
   602   2    -3.52139   -12.32487     3.52139
   603   2     0.00000   -12.32487     3.52139
   604   2     3.52139   -12.32487     3.52139
   605   2     0.00000   -12.32487     7.04278
   606   2    -3.52139    -8.80348   -10.56418
   607   2     0.00000    -8.80348   -10.56418
   608   2     3.52139    -8.80348   -10.56418
   609   2    -7.04278    -8.80348    -7.04278
   610   2    -3.52139    -8.80348    -7.04278
   611   1     0.00000    -8.80348    -7.04278
   612   2     3.52139    -8.80348    -7.04278
   613   2     7.04278    -8.80348    -7.04278
   614   2   -10.56418    -8.80348    -3.52139
   615   2    -7.04278    -8.80348    -3.52139
   616   1    -3.52139    -8.80348    -3.52139
   617   1     0.00000    -8.80348    -3.52139
   618   1     3.52139    -8.80348    -3.52139
   619   2     7.04278    -8.80348    -3.52139
   620   2    10.56418    -8.80348    -3.52139
   621   2   -10.56418    -8.80348     0.00000
   622   1    -7.04278    -8.80348     0.00000
   623   1    -3.52139    -8.80348     0.00000
   624   1     0.00000    -8.80348     0.00000
   625   1     3.52139    -8.80348     0.00000
   626   1     7.04278    -8.80348     0.00000
   627   2    10.56418    -8.80348     0.00000
   628   2   -10.56418    -8.80348     3.52139
   629   2    -7.04278    -8.80348     3.52139
   630   1    -3.52139    -8.80348     3.52139
   631   1     0.00000    -8.80348     3.52139
   632   1     3.52139    -8.80348     3.52139
   633   2     7.04278    -8.80348     3.52139
   634   2    10.56418    -8.80348     3.52139