4321
 Atoms. Timestep: 4193
3 0.0919452 -7.31042 -22.7242
3 -3.80025 -3.81526 -22.7206
3 0.0059452 -3.52073 -22.6633
3 3.83465 -3.73285 -22.5969
2 -7.38705 0.0925683 -22.7854
1 -3.55395 0.123194 -23.1244
1 0.107988 0.00205669 -22.8016
3 3.77067 0.136888 -22.6249
1 7.62516 0.134353 -22.655
1 -3.73106 3.6338 -22.895
1 0.0564371 3.80361 -22.7582
3 3.75528 3.87924 -22.7037
2 -0.0627371 7.49314 -22.8658
2 -7.65661 -11.363 -19.05
1 -3.90189 -11.6878 -19.5497
2 0.0500425 -11.4834 -19.1343
3 3.94361 -11.3644 -18.8028
2 7.76846 -11.3259 -18.7797
1 -11.8401 -8.10393 -19.1178
2 -7.49602 -7.62357 -18.9892
3 -3.88309 -7.63335 -19.1369
2 0.083135 -7.5314 -19.055
1 3.78673 -7.46461 -18.99
2 7.48051 -7.49243 -18.9662
2 11.2772 -7.56733 -18.9491
2 -11.3938 -3.86194 -19.0252
2 -7.53536 -3.7051 -19.0179
3 -3.61575 -3.83965 -18.912
2 0.0583853 -3.69311 -18.989
2 3.89509 -3.66722 -19.0501
3 7.55007 -3.67183 -19.1117
1 11.4418 -3.78735 -19.242
3 -11.4071 -0.0868482 -19.1261
1 -7.499 0.0417833 -19.1187
2 -3.72714 -0.0180175 -18.909
3 0.0198279 0.152692 -19.0392
1 3.81767 0.134222 -18.9428
1 7.66514 0.136446 -18.9637
2 11.4594 0.264832 -18.8714
1 -11.5251 3.96794 -19.0811
1 -7.5177 3.69923 -19.186
3 -3.74934 3.84067 -19.0842
2 0.109287 3.96442 -19.0443
2 3.87107 4.0648 -19.0126
2 7.73622 4.03714 -19.07
3 11.5088 3.93661 -18.9237
1 -11.4338 7.62896 -18.7852
3 -7.68144 7.49154 -18.9661
2 -3.78048 7.69064 -19.1435
3 -0.0325544 7.6492 -18.9599
1 3.95237 7.70278 -19.1482
3 7.59748 7.6905 -19.0994
1 11.4565 7.88296 -18.8544
1 -7.93849 11.5247 -18.7224
1 -3.93441 11.5842 -19.1221
1 -0.00756768 11.6387 -19.2883
3 3.86033 11.4914 -18.9402
2 7.85415 11.5056 -18.8848
1 -7.74871 -15.2843 -15.1994
1 -3.78632 -15.1891 -15.1686
3 -0.118502 -15.1544 -15.0442
2 3.98675 -15.1452 -15.2056
2 7.70687 -14.9986 -15.1209
2 -11.3469 -11.4613 -15.1171
3 -7.65517 -11.4578 -15.3442
2 -3.87103 -11.3748 -15.1756
1 -0.079409 -11.4302 -15.1583
2 3.81157 -11.3956 -15.1204
1 7.57578 -11.2718 -15.127
2 11.7803 -11.5375 -15.4275
1 -15.1021 -7.7572 -15.3101
2 -11.4578 -7.77793 -15.3699
1 -7.52257 -7.54807 -15.2502
1 -3.73541 -7.52265 -15.3515
2 0.078887 -7.51651 -15.2815
3 3.75028 -7.43031 -15.0198
1 7.62229 -7.48869 -15.1468
1 11.5348 -7.69237 -15.2727
2 15.2591 -7.98555 -15.1572
1 -15.1997 -3.99427 -15.4045
2 -11.4264 -3.81666 -15.2734
2 -7.50707 -3.75211 -15.2545
2 -3.70264 -3.89023 -15.2435
3 0.157602 -3.86573 -15.2836
1 3.81772 -3.71929 -15.0331
2 7.68383 -3.7692 -15.1052
2 11.3784 -3.72523 -15.1564
2 15.4687 -3.98272 -15.4902
2 -15.224 -0.186642 -15.1919
3 -11.4226 -0.0355587 -15.1845
1 -7.75075 -0.0541781 -15.3486
2 -3.7736 0.0153083 -15.2569
3 -0.0602438 0.0400692 -15.2648
2 3.79267 0.230495 -15.2004
2 7.70906 0.155053 -15.1931
3 11.4098 0.0784103 -15.2566
2 15.1834 -0.0308432 -15.0807
1 -15.3002 3.88638 -15.3637
3 -11.48 3.79328 -15.2917
1 -7.7034 3.75998 -15.129
3 -3.75887 3.77154 -15.1439
1 0.115484 4.01207 -15.3232
3 3.88495 4.0963 -15.206
1 7.75173 4.03179 -15.4578
2 11.4844 3.82869 -15.2819
3 15.2054 3.90025 -15.1882
2 -15.1837 7.60196 -15.0542
2 -11.3849 7.57919 -15.0913
2 -7.68732 7.55712 -15.1872
1 -3.87677 7.62679 -15.1691
2 0.157176 7.76703 -15.1776
2 3.9933 7.83416 -15.3186
3 7.70606 7.68976 -15.2089
3 11.7076 7.83781 -15.2204
1 15.1288 7.87079 -15.4329
2 -11.8639 11.5482 -15.1007
1 -7.62332 11.334 -15.3643
3 -3.83412 11.3105 -15.2198
1 -0.125901 11.6365 -15.3739
3 3.93159 11.5156 -15.1987
3 7.74518 11.5855 -15.2329
1 11.6876 11.7867 -15.4351
2 -7.89866 15.2477 -15.1242
3 -3.93083 15.268 -15.2713
2 -0.0722527 15.1354 -15.2461
2 3.85646 15.4291 -15.2523
3 7.70399 15.191 -15.212
3 -7.50974 -18.6594 -11.3555
3 -3.78968 -19.0108 -11.3811
2 -0.0303299 -19.0433 -11.4165
1 3.81795 -18.9622 -11.4251
1 7.68043 -18.7726 -11.4509
3 -11.4589 -15.2503 -11.4592
1 -7.62278 -15.3045 -11.3714
1 -3.73097 -15.2223 -11.3599
3 0.0161346 -15.2781 -11.3055
3 3.86511 -15.2459 -11.2325
2 7.66914 -15.3233 -11.2407
2 11.5671 -15.5158 -11.5835
1 -15.5123 -11.5713 -11.6227
3 -11.3954 -11.4889 -11.5183
2 -7.65322 -11.4469 -11.3309
3 -3.77559 -11.3131 -11.3999
3 0.0194375 -11.4171 -11.4207
3 3.8074 -11.2881 -11.3202
1 7.48091 -11.3474 -11.2123
3 11.4558 -11.4321 -11.4706
1 15.3539 -11.517 -11.4777
2 -18.9668 -7.70513 -11.4662
2 -15.2048 -7.62482 -11.4398
2 -11.4199 -7.61127 -11.4875
2 -7.51317 -7.66601 -11.4429
2 -3.66552 -7.49552 -11.4835
2 -0.0335155 -7.51371 -11.4608
1 3.82403 -7.44488 -11.4333
3 7.57662 -7.68207 -11.4251
2 11.4822 -7.60738 -11.2845
2 15.1934 -7.71596 -11.4947
3 18.9082 -7.71489 -11.3049
1 -19.197 -4.03099 -11.4068
1 -15.0244 -3.8888 -11.5014
1 -11.3917 -3.91731 -11.454
2 -7.56743 -3.80995 -11.504
2 -3.70339 -3.92367 -11.472
1 -0.0715355 -3.81092 -11.4279
2 3.81452 -3.772 -11.4408
1 7.58151 -3.73497 -11.2725
1 11.2985 -3.71816 -11.3593
2 15.11 -3.8805 -11.3809
2 19.0916 -3.84716 -11.3824
2 -18.9668 -0.114346 -11.4236
2 -15.3055 -0.172758 -11.5355
3 -11.3723 -0.0345203 -11.515
2 -7.68269 -0.0762116 -11.4078
1 -3.73951 -0.0518312 -11.4403
2 -0.0754324 0.00173514 -11.4956
2 3.75344 0.0425758 -11.3377
1 7.61641 0.10514 -11.4456
2 11.2858 0.0336965 -11.2761
1 15.1882 0.112898 -11.564
2 19.1511 0.166224 -11.6215
1 -19.1244 3.77078 -11.5719
3 -15.1494 3.69867 -11.4867
2 -11.4528 3.79167 -11.4172
3 -7.73009 3.72681 -11.3123
2 -3.7934 3.83019 -11.4158
2 -0.0208144 3.69739 -11.476
1 3.73961 3.91902 -11.3791
2 7.5983 3.76248 -11.4159
2 11.4603 3.81941 -11.403
2 15.3693 3.79165 -11.5845
3 19.1929 4.04357 -11.6481
1 -18.7456 7.61284 -11.5041
1 -15.3847 7.57141 -11.2964
2 -11.4611 7.47413 -11.4819
3 -7.68063 7.59433 -11.4025
2 -3.84771 7.76039 -11.4661
1 -0.00168225 7.67018 -11.4503
1 3.98604 7.72698 -11.5251
1 7.67233 7.55075 -11.4093
1 11.4707 7.64035 -11.4877
3 15.3309 7.51751 -11.3327
2 18.8868 7.83469 -11.5451
3 -15.1822 11.4719 -11.4127
2 -11.2856 11.5528 -11.4698
1 -7.75884 11.4528 -11.549
3 -3.87723 11.4449 -11.5055
3 0.10289 11.4969 -11.4806
1 3.94234 11.4959 -11.4671
1 7.86245 11.5645 -11.5007
1 11.4479 11.5376 -11.4215
3 15.0756 11.4617 -11.519
1 -11.5963 15.3736 -11.4382
2 -7.63214 15.1792 -11.4158
2 -3.77025 15.1703 -11.4572
3 0.0648687 15.2699 -11.3733
2 3.78785 15.3326 -11.5702
1 7.76066 15.1915 -11.4101
2 11.459 15.4979 -11.5361
2 -7.62632 19.0595 -11.5646
1 -4.00636 19.3837 -11.7421
2 0.0536393 19.1975 -11.4708
3 3.81528 18.916 -11.4232
2 7.52017 18.8109 -11.2688
1 0.102862 -22.7124 -7.61308
2 -11.3997 -18.9461 -7.65045
3 -7.73128 -19.0368 -7.26911
3 -3.74534 -19.0376 -7.56977
3 0.116677 -18.9832 -7.62499
2 3.84541 -18.9799 -7.55968
2 7.5849 -18.9357 -7.71706
3 11.222 -18.7855 -7.71786
3 -15.0039 -15.3289 -7.72581
1 -11.4533 -15.2299 -7.59338
3 -7.60557 -15.2172 -7.54171
1 -3.75205 -15.1675 -7.52593
1 -0.00165243 -15.244 -7.50886
1 3.76996 -15.2085 -7.48676
2 7.54556 -15.102 -7.43757
2 11.35 -15.1306 -7.54115
1 15.0781 -15.2734 -7.53912
3 -18.7995 -11.5421 -7.65498
1 -15.3581 -11.4096 -7.56167
2 -11.4228 -11.4363 -7.56566
3 -7.73685 -11.4507 -7.63068
1 -3.76825 -11.331 -7.68594
1 0.0344802 -11.3575 -7.5541
3 3.7561 -11.3465 -7.54034
2 7.61371 -11.3844 -7.53919
2 11.3807 -11.4938 -7.42185
1 15.2655 -11.3662 -7.50873
2 18.793 -11.4951 -7.41144
3 -18.9849 -7.80534 -7.64445
1 -15.2165 -7.80496 -7.61543
1 -11.4031 -7.71895 -7.64042
1 -7.65677 -7.63366 -7.69781
1 -3.66119 -7.65095 -7.52033
3 0.060738 -7.6546 -7.63559
1 3.6701 -7.62204 -7.57379
3 7.51052 -7.56743 -7.51207
3 11.4972 -7.75387 -7.56353
1 15.2489 -7.61086 -7.53127
1 19.0168 -7.47673 -7.44635
1 -19.0704 -3.93656 -7.64868
1 -15.2352 -3.96441 -7.61449
2 -11.3637 -4.04243 -7.61204
2 -7.58982 -3.96987 -7.64545
3 -3.67321 -3.90021 -7.64406
1 -0.0513614 -3.84404 -7.60933
1 3.69442 -3.80052 -7.56501
2 7.507 -3.70198 -7.5431
3 11.3991 -3.80996 -7.56026
2 15.1399 -3.80597 -7.46413
1 19.0803 -3.80135 -7.67524
2 -22.6733 -0.0760187 -7.60112
3 -19.0652 -0.0700749 -7.61386
1 -15.1929 -0.0993223 -7.59396
2 -11.3645 -0.178296 -7.73505
1 -7.53651 -0.00114972 -7.6397
1 -3.89932 -0.157625 -7.58622
2 0.0269341 0.024043 -7.55986
2 3.69285 -0.0570755 -7.59621
2 7.5719 0.0407741 -7.58245
1 11.2777 0.0136683 -7.70031
1 15.2467 0.00964371 -7.78929
1 18.9604 -0.0448386 -7.77311
3 22.7708 -0.148678 -7.44654
1 -19.0627 3.65885 -7.67138
2 -15.2164 3.78584 -7.68053
2 -11.4415 3.74309 -7.60941
2 -7.60193 3.79303 -7.65938
1 -3.8066 3.78537 -7.53027
1 0.00121788 3.83949 -7.48412
1 3.74833 3.87525 -7.63767
3 7.65155 3.73192 -7.53513
2 11.4003 3.87789 -7.5673
1 15.2462 3.78644 -7.67169
1 19.1669 3.7927 -7.61129
3 -19.0631 7.69339 -7.60787
2 -15.0215 7.54963 -7.66049
1 -11.4984 7.61118 -7.61347
2 -7.47644 7.69439 -7.67139
1 -3.76309 7.56593 -7.58789
2 0.000136944 7.59703 -7.52579
3 3.86094 7.75874 -7.52676
1 7.61323 7.61883 -7.67968
3 11.3566 7.61103 -7.64426
3 15.1819 7.64694 -7.63625
3 18.9484 7.69937 -7.66056
1 -18.8146 11.3118 -7.68659
3 -15.33 11.4117 -7.67008
1 -11.4594 11.5162 -7.52721
2 -7.61284 11.4118 -7.66962
3 -3.80884 11.2637 -7.60889
1 -0.0834198 11.4714 -7.62925
2 3.83033 11.6768 -7.66711
2 7.59221 11.4307 -7.62054
1 11.5743 11.5469 -7.69401
1 15.083 11.5497 -7.67583
3 18.7256 11.3829 -7.76504
1 -15.2819 15.3898 -7.74725
1 -11.4563 15.2756 -7.59156
1 -7.7241 15.366 -7.83099
2 -3.74051 15.1835 -7.71333
3 -0.0182208 15.2478 -7.657
3 3.94276 15.2666 -7.63029
3 7.65681 15.3128 -7.72772
2 11.5144 15.2962 -7.61732
2 15.3776 15.4108 -8.04814
2 -11.5569 19.0992 -7.56729
2 -7.57598 19.0351 -7.70352
2 -3.72284 18.9928 -7.71454
2 -0.097139 19.0241 -7.59591
2 3.86536 18.9809 -7.66984
3 7.72388 18.8225 -7.75344
2 11.319 18.9348 -7.74634
2 0.0845839 22.7288 -7.72156
1 -3.93247 -22.6969 -3.88369
1 0.169008 -22.7732 -3.8479
2 3.87168 -22.7481 -3.71566
1 -11.7648 -19.2548 -4.09912
2 -7.76578 -19.1225 -3.9082
3 -3.99676 -19.012 -3.81777
1 0.0310578 -19.0273 -3.84773
3 3.7427 -19.0134 -3.76338
2 7.53546 -18.9028 -3.73234
3 11.3851 -18.8085 -3.81414
2 -15.2905 -15.3065 -3.88367
3 -11.5557 -15.2509 -3.83681
2 -7.59483 -15.3037 -3.81349
1 -3.89067 -15.2016 -3.68485
3 -0.0778719 -15.1634 -3.71886
2 3.75095 -15.2703 -3.75812
2 7.58108 -15.2012 -3.76142
1 11.4183 -15.2687 -3.72578
2 15.1659 -15.1577 -3.64881
2 -19.1908 -11.7453 -4.08722
3 -15.3148 -11.5284 -3.76142
3 -11.5677 -11.3846 -3.68949
2 -7.66636 -11.4341 -3.84193
3 -3.86507 -11.4797 -3.76738
2 0.0260678 -11.4064 -3.82114
1 3.75249 -11.5307 -3.73617
1 7.672 -11.4602 -3.62825
3 11.3987 -11.3481 -3.84359
1 15.2551 -11.4878 -3.65633
1 19.1568 -11.8795 -3.59268
3 -19.0415 -7.77534 -3.74365
3 -15.3137 -7.60441 -3.72819
3 -11.5478 -7.71307 -3.7101
3 -7.6027 -7.66152 -3.78964
2 -3.75537 -7.6773 -3.90163
1 -0.0243158 -7.59544 -3.74655
2 3.77328 -7.65481 -3.80414
2 7.73854 -7.57402 -3.73734
2 11.4004 -7.6652 -3.87516
2 15.2326 -7.41316 -3.70086
3 18.9166 -7.64743 -3.76828
2 -22.7219 -3.94599 -3.93428
3 -19.1156 -3.98119 -3.61651
2 -15.2772 -3.93525 -3.73432
2 -11.4715 -3.92395 -3.74654
1 -7.63958 -3.79574 -3.84623
1 -3.74623 -3.87198 -3.84465
2 -0.0422466 -3.76962 -3.81019
3 3.77362 -3.71213 -3.64843
2 7.54283 -3.73798 -3.80803
3 11.4023 -3.74337 -3.76706
3 15.135 -3.60853 -3.71258
3 18.9893 -3.67354 -3.82578
2 22.9149 -3.90085 -3.83125
2 -22.6726 -0.0308599 -3.81949
3 -19.1134 -0.0753152 -3.69769
1 -15.1884 -0.124553 -3.78376
1 -11.5633 -0.105933 -3.6976
2 -7.55228 -0.0420619 -3.85089
2 -3.83231 -0.0168171 -3.89083
1 0.0563914 -0.0357645 -3.71848
2 3.73794 0.134355 -3.69598
2 7.56273 0.124933 -3.70315
3 11.4487 0.0127662 -3.80319
2 15.1858 0.00212875 -3.92173
2 18.9502 0.0417118 -3.77321
1 23.195 -0.0702269 -3.6963
1 -22.7049 3.78806 -3.91422
2 -18.9357 3.73789 -3.86169
3 -15.1635 3.86743 -3.85294
2 -11.4059 3.7719 -3.74481
2 -7.62569 3.78326 -3.81038
2 -3.82021 3.79486 -3.83756
3 -0.147078 3.77351 -3.72542
1 3.91807 3.88027 -3.81507
3 7.57002 3.83141 -3.82711
3 11.4873 3.86414 -3.84146
1 15.3158 3.73554 -4.03336
1 19.0401 3.89705 -3.92304
3 22.7209 3.76273 -3.97586
2 -18.997 7.56633 -3.75476
2 -15.2146 7.55984 -3.8137
3 -11.3612 7.52534 -3.80709
3 -7.56112 7.52331 -3.76482
2 -3.88661 7.4626 -3.87573
3 0.0349543 7.54536 -3.70376
2 3.69923 7.57661 -3.88041
2 7.639 7.7319 -3.83043
3 11.3491 7.69136 -3.83014
3 15.2508 7.76378 -3.79949
3 19.2285 7.63643 -3.8434
2 -19.1125 11.5037 -4.05132
1 -15.248 11.4285 -3.80505
2 -11.2433 11.2666 -3.91308
2 -7.68364 11.3839 -3.87947
2 -3.7464 11.4309 -3.82906
3 0.0399367 11.4891 -3.81981
2 3.83738 11.5258 -3.76037
2 7.64947 11.453 -3.80018
2 11.5613 11.465 -3.81893
2 15.2449 11.4348 -3.77312
1 19.2662 11.7931 -4.0096
2 -15.4439 15.3237 -4.08881
2 -11.375 15.2487 -3.93732
2 -7.49791 15.2645 -3.69756
2 -3.79333 15.2799 -3.93627
1 0.00137144 15.2703 -3.90191
2 3.85464 15.1587 -3.79095
1 7.6867 15.2139 -3.90168
1 11.4064 15.1958 -3.82521
2 15.299 15.2416 -3.90823
3 -11.6101 18.8726 -3.78479
2 -7.69856 19.0048 -3.74539
2 -3.77494 19.0292 -3.81727
1 -0.0353473 19.0203 -3.85211
2 3.96627 19.0793 -3.9523
2 7.51763 19.0987 -3.88358
2 11.6462 19.1531 -4.08585
1 -3.71445 22.723 -3.96362
2 0.00359729 22.757 -3.93478
1 3.8671 22.8451 -4.05273
1 -7.55618 -22.6889 -0.119099
3 -4.00043 -22.676 -0.0978785
3 0.0405001 -22.9088 -0.0261632
2 3.74321 -23.1094 0.0594097
3 7.4917 -22.668 0.13945
3 -11.4877 -19.0334 0.0815795
2 -7.82604 -19.1132 -0.134076
1 -3.89804 -19.075 0.0678731
2 -0.0761312 -19.011 -0.0982394
2 3.71589 -19.0203 0.0823635
3 7.37611 -18.8726 -0.00358731
2 11.5885 -19.0414 0.0672873
2 -15.098 -14.9781 0.149852
1 -11.4778 -15.1587 -0.0164876
1 -7.79757 -15.3489 0.0699538
1 -3.91748 -15.2723 -0.0615762
3 -0.0661668 -15.2325 -0.0239982
3 3.75735 -15.2826 0.184663
3 7.52311 -15.26 0.019704
1 11.3491 -15.1661 0.0887154
2 15.0306 -15.2779 0.21945
3 -19.0957 -11.4772 0.0239927
2 -15.2405 -11.4457 0.0674695
2 -11.5817 -11.4008 0.0917679
2 -7.69293 -11.4469 0.162198
2 -3.94569 -11.5267 0.0996412
2 0.0558823 -11.4615 -0.0263246
1 3.75137 -11.5191 -0.114465
2 7.40704 -11.3838 0.0224415
1 11.4342 -11.3914 0.156422
1 15.2859 -11.4225 0.0936664
2 19.4645 -12.0216 -0.0160178
1 -22.8317 -7.49083 0.167265
2 -18.8896 -7.64762 0.115305
3 -15.3558 -7.6377 0.157183
1 -11.4761 -7.64852 0.160896
3 -7.6457 -7.5713 0.0274391
2 -3.91624 -7.72341 0.117531
1 -0.0547793 -7.73007 0.0488132
1 3.74872 -7.63845 0.0338313
1 7.53678 -7.64292 0.0931563
1 11.3574 -7.64046 0.023066
2 15.2457 -7.63632 -0.0528893
3 19.119 -7.6039 0.0313091
2 22.681 -7.58392 0.193145
1 -22.7649 -3.78072 0.0173457
2 -19.0393 -3.98648 0.197768
3 -15.3162 -3.91682 0.14525
2 -11.5194 -3.95822 0.0924976
1 -7.61116 -3.92126 0.0794779
2 -3.94034 -3.94069 -0.0414541
3 0.00869511 -3.90385 0.0156445
2 3.6827 -3.77334 0.0253492
2 7.60979 -3.74262 0.0598011
2 11.4099 -3.91741 0.000453631
2 15.3165 -3.75408 -0.081775
3 18.8579 -3.75128 -0.0819068
2 22.741 -3.68611 0.0276932
2 -22.7616 0.0592314 0.0893602
1 -18.9923 -0.0268668 0.103661
1 -15.324 -0.105098 0.0334881
1 -11.3784 -0.0889282 -0.0266953
3 -7.49346 -0.0989419 -0.0130694
1 -3.79649 0.0156958 -0.0342894
3 0.0549145 -0.0796611 -0.017964
3 3.86971 0.0397025 0.0348299
2 7.71502 0.0204141 -0.00741212
1 11.361 0.0973166 0.0342986
1 15.1086 0.0887859 0.165988
1 18.935 -0.00582344 0.0576024
2 23.1464 0.0596332 -0.0617685
1 -22.9499 3.5427 0.489479
3 -19.0684 3.7134 -0.0476453
1 -15.2211 3.82647 -0.0540349
2 -11.4873 3.9265 -0.0565596
1 -7.59131 3.85217 0.0207623
2 -3.77441 3.66691 -0.0452586
2 0.0974391 3.75313 -0.00783859
3 3.95328 3.77888 -0.0218372
1 7.57165 3.77295 0.0348093
2 11.4478 3.98899 -0.00338672
2 15.1652 3.8213 0.218986
3 19.0277 3.83504 0.029524
3 22.7515 3.62556 -0.136376
3 -22.6082 7.43263 0.0268677
3 -18.8839 7.67448 0.0359535
1 -15.1573 7.72131 0.012381
3 -11.2851 7.66779 -0.0674652
2 -7.67031 7.7541 0.055175
2 -3.77018 7.48233 -0.111373
3 0.0449269 7.64954 -0.0888717
1 3.8999 7.57613 0.0367203
2 7.58983 7.67345 -0.087168
2 11.5351 7.59236 0.0563368
3 15.2922 7.57504 -0.00600392
1 19.1589 7.75476 -0.00105944
2 22.7365 7.42186 0.206751
2 -19.0537 11.5387 0.090919
3 -15.169 11.4803 0.0779472
1 -11.2685 11.326 0.0123336
3 -7.52598 11.4335 -0.0286046
3 -3.7963 11.366 -0.0811115
1 0.033455 11.3835 -0.125445
1 3.94802 11.4256 -0.0538082
1 7.64889 11.4827 -0.103498
1 11.5553 11.4475 -0.108591
2 15.2306 11.4243 -0.0492437
2 19.0212 11.453 0.0200696
2 -15.1064 15.2084 0.04026
2 -11.3431 15.0567 0.113533
1 -7.56565 15.2211 0.0811293
3 -3.79029 15.1705 0.102245
2 -0.089686 15.2486 -0.0404214
3 3.96029 15.3746 0.103397
1 7.5083 15.1822 -0.0963777
1 11.4674 15.3165 -0.0377972
2 15.1855 15.2602 -0.0879247
1 -11.6063 19.2377 0.126439
2 -7.58394 18.9733 0.181014
3 -3.77875 19.1899 -0.0163096
2 0.160571 18.9829 -0.117345
1 3.84598 19.0971 0.0755999
2 7.52121 19.1075 -0.0810779
3 11.5786 19.019 -0.148848
1 -7.19991 23.1581 -0.108088
1 -3.76529 22.626 -0.0269019
2 0.009595 22.8359 -0.0603625
2 3.79915 22.7446 -0.157615
2 7.46641 22.8674 -0.0430858
1 -3.77626 -22.8957 3.67794
1 -0.214068 -22.8987 3.67769
3 3.53072 -22.754 3.97881
2 -11.7607 -18.9567 3.83141
3 -7.73287 -19.1602 3.88421
1 -3.73501 -19.064 3.85675
2 -0.0193357 -19.2036 3.69401
2 3.7298 -19.093 3.97435
2 7.53217 -18.9121 3.91793
1 11.5403 -19.307 4.15586
3 -15.3515 -15.1129 3.8169
1 -11.3789 -15.2578 3.84117
2 -7.76171 -15.2415 3.80262
1 -3.82536 -15.3129 3.84273
2 -0.037355 -15.2152 3.75095
2 3.68572 -15.2344 3.90772
3 7.45319 -15.1751 3.97709
1 11.2815 -15.3526 3.80666
2 15.1201 -15.3953 4.02172
3 -19.0053 -11.4692 3.84689
3 -15.1908 -11.4154 3.72629
2 -11.5268 -11.4243 3.78305
2 -7.71068 -11.4689 3.85616
3 -3.83003 -11.5665 3.87267
3 0.089234 -11.5644 3.75193
1 3.73411 -11.4318 3.80095
2 7.47624 -11.3935 3.87087
1 11.3031 -11.4371 3.81539
3 15.3632 -11.4087 3.78488
1 19.1672 -11.6539 4.05551
2 -18.9585 -7.60836 3.9549
3 -15.3106 -7.55052 3.9575
3 -11.5335 -7.61636 3.89281
2 -7.64683 -7.71328 3.99615
1 -3.84772 -7.66413 3.90876
2 -0.0852312 -7.66417 3.86034
3 3.7388 -7.65091 3.75855
2 7.5769 -7.56323 3.79285
2 11.3389 -7.66201 3.85745
1 15.3039 -7.61141 3.81692
3 19.1098 -7.72594 3.89986
2 -22.7107 -3.94025 3.99005
2 -19.001 -3.84863 3.83548
1 -15.2452 -3.88622 3.76074
2 -11.4644 -3.86441 3.73679
2 -7.6587 -3.98398 3.85421
2 -3.81305 -3.83244 3.85868
2 0.083354 -3.76153 3.83764
1 3.85912 -3.91716 3.89197
2 7.67519 -3.8453 3.91624
1 11.4123 -3.73741 3.85981
1 15.3512 -3.97216 3.87135
2 18.9974 -3.82066 3.77257
3 22.9072 -3.93999 3.83514
1 -22.7547 -0.00183309 4.07015
3 -19.0736 -0.0968205 3.86845
2 -15.2266 -0.112309 3.77039
1 -11.5172 0.0952672 3.82911
2 -7.54764 -0.16256 3.89789
2 -3.85143 -0.00268077 3.76675
3 0.0347245 -0.012326 3.75356
3 3.9715 -0.023109 3.85512
2 7.64797 -0.120947 3.84392
2 11.4728 0.0278496 3.79304
1 15.2358 0.110843 3.89007
2 19.1295 -0.00429189 3.85078
1 22.8405 -0.0234146 3.59588
3 -22.6463 3.84517 4.04815
2 -18.9366 3.67598 3.90048
2 -15.2385 3.73725 3.73816
1 -11.3982 3.86923 3.81236
3 -7.6025 3.84675 3.78251
2 -3.65929 3.70006 3.71893
2 0.021401 3.68003 3.69532
3 3.95833 3.69627 3.87579
1 7.66888 3.95944 3.85992
3 11.346 3.83599 3.81397
3 15.2705 3.86858 3.91129
1 19.2781 3.92268 3.8127
1 22.8308 3.86952 3.79963
1 -18.923 7.50154 3.83538
2 -15.1913 7.56873 3.69778
1 -11.4817 7.50995 3.71586
2 -7.52021 7.68191 3.83635
3 -3.77551 7.6466 3.57592
1 0.0677618 7.51558 3.72331
2 3.76138 7.6021 3.76625
3 7.63469 7.64828 3.84053
1 11.337 7.77295 3.86293
1 15.2751 7.52613 3.82294
2 19.1609 7.63091 3.79031
2 -18.8768 11.5685 3.99566
2 -15.1326 11.4895 3.77121
3 -11.4145 11.4398 3.7195
2 -7.52266 11.3579 3.84858
2 -3.71499 11.2885 3.85766
2 0.202891 11.4719 3.96739
1 3.97049 11.3208 3.9268
3 7.61009 11.424 3.70424
1 11.3636 11.3934 3.85627
1 15.2685 11.4553 3.8726
1 19.1659 11.5611 3.96057
1 -15.1543 15.2419 3.92425
3 -11.3681 15.1964 3.86886
2 -7.62453 15.1746 3.67316
1 -3.85697 15.1671 3.75316
3 0.0957858 15.299 3.72114
2 3.96683 15.3345 3.91968
1 7.57621 15.2388 3.84134
2 11.4809 15.3331 3.84896
2 15.2637 15.2865 3.78463
2 -11.2841 18.8939 3.88826
1 -7.65383 19.0447 3.80978
3 -3.73425 19.1269 3.76033
3 -0.0790319 19.097 3.74663
1 3.79059 19.0937 3.7962
2 7.77691 19.1412 3.7894
3 11.5699 19.0529 3.72761
3 -3.84532 22.9267 3.85646
2 0.0689422 22.7342 3.75351
3 3.81458 22.5695 4.06856
1 0.0599862 -22.7711 7.63536
2 -11.5752 -18.8422 7.87202
2 -7.53495 -18.9957 7.41015
1 -3.81528 -19.2508 7.53267
1 -0.00717188 -19.1142 7.67796
2 3.91775 -19.1294 7.65309
3 7.53095 -19.0145 7.72095
2 11.1807 -18.921 7.7907
3 -15.1998 -14.9747 7.70059
1 -11.5667 -15.1688 7.65332
2 -7.67406 -15.241 7.71532
1 -3.85032 -15.351 7.54969
2 -0.0363569 -15.1907 7.58128
1 3.61914 -15.2177 7.63629
1 7.45914 -15.2508 7.65586
2 11.3912 -15.233 7.58822
2 15.3514 -15.4119 8.37605
1 -19.0651 -11.4384 8.15472
1 -15.5355 -11.4042 7.70804
2 -11.4854 -11.4939 7.70967
2 -7.67646 -11.4978 7.75067
3 -3.87528 -11.4858 7.67893
3 -0.0351527 -11.4434 7.62983
3 3.72482 -11.4223 7.57687
3 7.39377 -11.4407 7.58971
3 11.2657 -11.3292 7.68295
3 15.2802 -11.4923 7.87253
1 19.0212 -11.5271 7.82088
2 -19.0822 -7.61373 7.62586
1 -15.2822 -7.7794 7.55391
2 -11.4085 -7.76258 7.70296
2 -7.72146 -7.76595 7.76438
2 -3.85108 -7.72258 7.65031
1 0.0724513 -7.78508 7.64232
3 3.84139 -7.6355 7.61713
2 7.46714 -7.63244 7.54601
1 11.4127 -7.79416 7.67543
1 15.2678 -7.69109 7.65659
3 19.0921 -7.66411 7.62407
2 -19.0233 -3.89266 7.70392
2 -15.1676 -3.85382 7.67861
2 -11.463 -3.90166 7.71817
2 -7.73464 -3.93558 7.66139
1 -3.83455 -3.8995 7.62393
2 -0.0022647 -3.89461 7.58909
2 3.82816 -3.83445 7.67319
2 7.61663 -3.85274 7.49874
2 11.3527 -3.73596 7.71926
2 15.2361 -3.90826 7.70777
1 19.328 -3.72092 7.798
3 -22.5223 0.0434654 7.75425
1 -18.9239 0.0265807 7.79239
1 -15.3245 0.0135262 7.71603
2 -11.4676 -0.0572063 7.66911
1 -7.67738 -0.0559197 7.65761
2 -3.86074 0.0266707 7.67111
2 0.065879 0.00543423 7.45835
3 3.73916 0.0228039 7.58395
1 7.69635 -0.00216946 7.50383
2 11.4285 0.0438624 7.60822
1 15.1745 -0.057105 7.67056
3 19.0843 -0.0540117 7.64434
1 22.8773 0.193694 7.52153
3 -18.9602 3.87704 7.74771
2 -15.2183 3.68143 7.64614
2 -11.2651 3.80426 7.75445
3 -7.65362 3.6651 7.60939
2 -3.84182 3.75146 7.51043
1 0.0188623 3.82302 7.53299
2 3.72133 3.8465 7.51497
2 7.68584 3.82641 7.65884
2 11.2851 3.81846 7.58744
3 15.1359 3.91349 7.64595
3 19.1735 3.8892 7.60009
3 -18.7703 7.50364 7.68135
2 -15.065 7.40248 7.6595
3 -11.3974 7.53811 7.63172
1 -7.50813 7.57644 7.54513
2 -3.81591 7.47743 7.6096
2 -0.00427004 7.59024 7.55392
2 3.79171 7.65509 7.61302
2 7.53352 7.59269 7.64726
3 11.3667 7.66238 7.52266
1 15.1278 7.64011 7.60903
1 18.968 7.63485 7.64415
3 -18.7589 11.4906 7.7144
2 -15.0982 11.3498 7.5542
2 -11.269 11.4462 7.70725
3 -7.55427 11.3379 7.55689
1 -3.70742 11.3921 7.54079
1 0.0992662 11.3219 7.59113
1 3.95049 11.3189 7.59006
3 7.58858 11.3041 7.72669
2 11.1981 11.4193 7.67564
1 15.2136 11.6094 7.59123
2 18.9435 11.5091 7.6487
1 -14.9795 15.0809 7.74985
2 -11.3047 15.1162 7.52301
3 -7.63118 15.0947 7.616
2 -3.79385 15.2563 7.55435
1 0.0482754 15.2835 7.62835
2 3.81493 15.2067 7.71857
2 7.57746 15.2646 7.63524
2 11.2364 15.1715 7.69293
2 15.186 15.5985 7.81152
1 -11.3545 18.9778 7.90583
3 -7.50495 18.9692 7.63509
2 -3.86183 19.0072 7.64311
2 -0.112738 19.0384 7.58392
1 3.76931 19.0594 7.74644
2 7.39847 19.0617 7.65526
2 11.4803 19.0385 7.88882
2 -0.0761315 22.8042 7.49245
2 -7.93448 -19.0852 11.288
1 -4.07197 -19.4451 11.6177
1 -0.00160267 -20.0492 11.9846
2 4.25597 -19.291 11.6391
3 7.53282 -18.6505 11.3139
1 -11.7353 -15.3623 11.6216
2 -7.76597 -15.3614 11.4422
2 -3.89204 -15.3483 11.4122
2 -0.00120146 -15.2006 11.3649
1 3.84761 -15.1896 11.2522
2 7.49077 -15.1983 11.382
1 11.4321 -15.5374 11.6262
1 -15.3934 -11.4965 11.7637
3 -11.509 -11.4489 11.583
2 -7.61137 -11.4605 11.4436
3 -3.76533 -11.5114 11.5224
3 -0.0120254 -11.501 11.4463
3 3.78711 -11.5974 11.4188
2 7.40619 -11.3903 11.4471
2 11.3253 -11.4949 11.3539
2 15.2014 -11.3729 11.4919
1 -19.0435 -7.5464 11.6351
1 -15.2347 -7.68223 11.5893
2 -11.4613 -7.66311 11.4916
2 -7.51539 -7.90952 11.4702
1 -3.92464 -7.71813 11.5391
3 -0.0875303 -7.71314 11.3442
1 3.7309 -7.80937 11.4903
2 7.38677 -7.69839 11.4582
3 11.4183 -7.81119 11.4879
2 15.1949 -7.68482 11.2826
1 18.8257 -7.67372 11.4958
1 -19.0093 -3.87491 11.6019
1 -15.2648 -3.72653 11.5764
1 -11.3138 -3.88831 11.4649
2 -7.65058 -3.87006 11.5022
2 -3.83923 -3.95474 11.4299
3 0.0325014 -3.89426 11.3001
2 3.64222 -3.86469 11.3486
2 7.50151 -3.77249 11.3953
1 11.3625 -3.81175 11.3837
2 15.2963 -3.97856 11.412
2 18.8444 -3.89744 11.5416
3 -19.0358 -0.0126272 11.6166
2 -15.1716 -0.0651945 11.4356
3 -11.4206 -0.0136529 11.4055
2 -7.63104 -0.182136 11.4928
2 -3.80237 0.0156232 11.3702
3 0.0300328 -0.0554628 11.346
1 3.81848 -0.0570179 11.3387
2 7.44882 -0.00680814 11.4002
3 11.324 0.0108446 11.3616
3 15.3156 -0.0506656 11.4153
2 18.9278 -0.0208367 11.564
3 -18.8449 3.84107 11.5016
3 -15.197 3.76029 11.4176
2 -11.423 3.66285 11.406
2 -7.60033 3.90454 11.2427
3 -3.81051 3.73839 11.2544
3 -0.0867473 3.75751 11.3157
2 3.77816 3.86592 11.4812
2 7.49505 3.75824 11.394
2 11.4627 3.82104 11.4577
2 15.2757 3.95548 11.4624
2 19.2503 3.83983 11.724
2 -18.9426 7.95128 11.5891
2 -15.0326 7.54331 11.3653
2 -11.332 7.52145 11.3395
3 -7.59865 7.59423 11.3755
3 -3.73749 7.54274 11.3324
3 -0.00581915 7.49716 11.331
1 3.7808 7.59444 11.369
2 7.63108 7.63197 11.4805
2 11.3155 7.51959 11.4011
3 15.1899 7.57272 11.507
2 19.0357 7.70441 11.6761
1 -15.4626 11.7488 11.6695
2 -11.2092 11.2981 11.4214
3 -7.43366 11.363 11.4539
2 -3.85486 11.3555 11.2592
3 0.00562269 11.2798 11.4057
2 3.83405 11.3727 11.4109
1 7.4958 11.376 11.4359
3 11.321 11.4033 11.3832
1 15.1869 11.4456 11.518
2 -11.4332 15.1958 11.4181
2 -7.50758 15.1436 11.4829
2 -3.77434 15.1349 11.5215
2 -0.0273621 15.3043 11.4722
3 3.78708 15.2061 11.513
3 7.6217 15.2519 11.5837
2 11.5476 15.5091 11.3151
1 -7.59625 19.0246 11.5021
2 -3.95213 19.0836 11.8597
3 -0.101115 18.894 11.6374
2 3.77751 19.3084 11.9835
2 7.85993 19.2736 11.6503
3 -7.68488 -15.235 15.14
1 -3.82953 -15.6498 15.4277
2 0.105991 -15.2353 15.0385
3 3.82877 -15.19 15.1969
2 8.09421 -15.7095 15.6541
2 -11.3207 -11.4735 15.2335
2 -7.57975 -11.489 15.1492
2 -3.89533 -11.4898 15.1816
3 -0.128394 -11.5344 15.1449
1 3.65918 -11.315 15.1543
2 7.42223 -11.3643 15.2499
2 11.4276 -11.46 15.3104
1 -15.1533 -7.65979 15.3224
2 -11.3464 -7.6829 15.2628
3 -7.71813 -7.66066 15.2361
3 -3.97613 -7.81702 15.2411
3 0.004083 -7.6256 15.1731
1 3.72217 -7.59723 15.2217
3 7.31119 -7.57678 15.2436
3 11.2801 -7.64671 15.228
3 14.9907 -7.696 15.2344
1 -15.2439 -3.84181 15.4867
1 -11.3429 -3.87176 15.44
2 -7.75342 -4.01565 15.174
2 -3.72851 -3.96007 15.1969
3 -0.0128505 -3.81961 15.2339
3 3.80072 -3.81955 15.261
3 7.48821 -3.8594 15.0558
2 11.1496 -3.8619 15.1387
1 15.2521 -3.85176 15.4047
2 -15.1591 -0.0260916 15.2383
1 -11.4625 -0.0514504 15.2987
3 -7.6955 -0.073871 15.1938
2 -3.77383 -0.120175 15.0784
3 -0.0551599 0.00586166 15.1307
3 3.78792 0.0133483 15.2164
3 7.49526 -0.0915249 15.1488
2 11.3141 -0.0864369 15.3757
3 14.9679 -0.100565 15.1959
2 -15.4949 3.93563 15.3425
3 -11.281 3.79713 15.2601
1 -7.47889 3.81104 15.1891
1 -3.83441 3.73502 15.1247
2 0.049996 3.81051 15.1702
1 3.61592 3.7671 15.1401
3 7.44335 3.84601 15.1814
2 11.4046 3.68755 15.1865
1 15.3134 3.92008 15.1922
3 -15.0293 7.58584 14.9687
3 -11.4051 7.65247 15.2336
2 -7.47599 7.60428 15.1233
3 -3.8106 7.64479 15.0458
3 -0.0678318 7.62009 15.1835
3 3.65966 7.67149 15.2071
3 7.57405 7.59359 15.117
2 11.3955 7.49105 15.1306
3 15.0726 7.60803 15.1782
2 -11.6691 11.5502 15.2204
2 -7.45126 11.4039 15.1053
1 -3.80704 11.2625 15.1427
2 -0.0236933 11.4638 15.1179
2 3.63297 11.2426 15.1377
1 7.52584 11.2858 15.249
2 11.4765 11.2956 15.4225
3 -7.48397 15.0216 15.0877
1 -3.87716 15.3051 15.567
2 -0.0774654 15.1474 15.3422
2 3.75821 15.4316 15.4575
1 8.00921 15.2608 15.1692
2 -7.69974 -11.5461 19.0278
2 -3.83919 -11.5501 18.9053
3 -0.0791969 -11.5188 19.0277
3 3.62455 -11.4811 18.9041
1 7.80069 -11.4266 18.9311
3 -11.3279 -7.67893 18.924
3 -7.42797 -7.6927 18.9999
1 -3.85413 -7.69009 18.9711
2 -0.0727038 -7.63654 18.9277
1 3.76285 -7.60017 19.0026
3 7.41054 -7.41891 18.913
1 11.8271 -8.19923 19.2853
1 -11.3585 -3.97938 19.0501
3 -7.64766 -3.9104 18.8984
3 -3.81327 -3.8027 18.9308
3 -0.0131216 -3.86065 18.9814
3 3.74241 -3.71223 18.9998
3 7.48898 -3.94121 18.9026
2 11.7793 -4.05974 18.9034
1 -11.4868 -0.0335635 19.0896
1 -7.60294 0.0335569 19.0273
1 -3.72665 -0.0112732 18.8964
1 -0.102323 0.016515 18.9119
1 3.58439 -0.0363813 18.8285
2 7.54669 0.114067 18.7845
3 11.2224 -0.0539287 18.8702
3 -11.3887 3.90694 18.9983
3 -7.60687 3.72163 18.9195
3 -3.80077 3.67387 18.8301
3 -0.116507 3.70934 18.8477
2 3.61283 3.71091 19.0044
2 7.33664 3.66818 19.0852
1 11.4359 3.89159 19.0103
2 -11.3738 7.80687 18.7456
3 -7.53027 7.44358 18.9169
2 -3.73767 7.43076 18.9756
3 -0.125447 7.54628 18.9127
2 3.81726 7.46527 19.038
1 7.56433 7.4948 18.9074
1 11.344 7.69484 18.933
1 -7.87167 11.5961 18.7271
3 -3.80698 11.4183 18.8178
2 -0.000961287 11.4578 19.2134
1 4.18556 11.7865 19.2182
1 8.05371 11.3366 19.1542
2 -0.262727 -7.58499 22.526
2 -3.81183 -4.00942 22.8525
1 -0.0677992 -3.72085 22.7334
2 3.6737 -3.83094 22.666
3 -7.57222 0.0462969 22.5408
2 -3.89344 0.00176143 22.6716
3 -0.118412 -0.0827701 22.6342
3 3.67389 0.0344508 22.4694
1 7.54067 -0.0667735 22.6459
2 -3.86449 3.69597 22.6571
2 -0.0225814 3.75666 22.6647
2 3.69249 3.79171 22.6418
3 0.0239484 7.44976 22.6752
1 -5.57721 -5.55846 -22.723
1 -1.81725 -5.63582 -22.622
3 1.94763 -5.60255 -22.5765
2 5.87175 -5.50539 -22.6692
3 -5.43153 -1.75749 -22.6844
2 -1.91048 -1.76838 -22.9711
2 1.94763 -1.86891 -22.6321
2 5.67943 -1.69946 -22.6266
1 -5.67166 1.86206 -22.737
1 -1.68777 1.88281 -23.0334
3 1.90995 1.92952 -22.763
1 5.70045 2.00696 -22.6814
2 -5.56574 5.98937 -22.6236
1 -2.01677 5.62146 -22.6863
2 1.93644 5.81697 -22.8186
3 5.70448 5.90404 -22.4415
2 -5.79876 -13.3136 -19.106
2 -2.02468 -13.1539 -19.0441
1 2.00888 -13.2147 -18.8491
3 5.85111 -13.0513 -18.7863
2 -10.103 -10.0652 -19.2026
1 -5.73428 -9.64078 -19.2755
3 -1.67192 -9.50932 -18.9624
2 2 -9.55728 -19.0602
1 5.82702 -9.4008 -18.8694
2 9.65588 -9.53525 -18.8615
2 -13.0831 -6.08318 -18.9445
2 -9.41298 -5.63162 -19.0456
2 -5.68911 -5.56181 -18.9307