LAMMPS DATA FOR MEAM SIMULATION

    959   atoms
      2   atom types

  -23.74   23.74   xlo xhi
  -23.74   23.74   ylo yhi
  -23.74   23.74   zlo zhi

 Atoms

     1   1    -3.92444    -7.84889   -11.77333
     2   2     0.00000    -7.84889   -11.77333
     3   2     3.92444    -7.84889   -11.77333
     4   1    -7.84889    -3.92444   -11.77333
     5   2    -3.92444    -3.92444   -11.77333
     6   1     0.00000    -3.92444   -11.77333
     7   1     3.92444    -3.92444   -11.77333
     8   2     7.84889    -3.92444   -11.77333
     9   1    -7.84889     0.00000   -11.77333
    10   1    -3.92444     0.00000   -11.77333
    11   1     0.00000     0.00000   -11.77333
    12   2     3.92444     0.00000   -11.77333
    13   1     7.84889     0.00000   -11.77333
    14   1    -7.84889     3.92444   -11.77333
    15   1    -3.92444     3.92444   -11.77333
    16   1     0.00000     3.92444   -11.77333
    17   2     3.92444     3.92444   -11.77333
    18   2     7.84889     3.92444   -11.77333
    19   2    -3.92444     7.84889   -11.77333
    20   1     0.00000     7.84889   -11.77333
    21   1     3.92444     7.84889   -11.77333
    22   1    -3.92444   -11.77333    -7.84889
    23   1     0.00000   -11.77333    -7.84889
    24   1     3.92444   -11.77333    -7.84889
    25   1    -7.84889    -7.84889    -7.84889
    26   1    -3.92444    -7.84889    -7.84889
    27   1     0.00000    -7.84889    -7.84889
    28   1     3.92444    -7.84889    -7.84889
    29   2     7.84889    -7.84889    -7.84889
    30   1   -11.77333    -3.92444    -7.84889
    31   1    -7.84889    -3.92444    -7.84889
    32   1    -3.92444    -3.92444    -7.84889
    33   2     0.00000    -3.92444    -7.84889
    34   1     3.92444    -3.92444    -7.84889
    35   2     7.84889    -3.92444    -7.84889
    36   1    11.77333    -3.92444    -7.84889
    37   1   -11.77333     0.00000    -7.84889
    38   2    -7.84889     0.00000    -7.84889
    39   1    -3.92444     0.00000    -7.84889
    40   1     0.00000     0.00000    -7.84889
    41   1     3.92444     0.00000    -7.84889
    42   2     7.84889     0.00000    -7.84889
    43   1    11.77333     0.00000    -7.84889
    44   1   -11.77333     3.92444    -7.84889
    45   1    -7.84889     3.92444    -7.84889
    46   2    -3.92444     3.92444    -7.84889
    47   2     0.00000     3.92444    -7.84889
    48   2     3.92444     3.92444    -7.84889
    49   2     7.84889     3.92444    -7.84889
    50   1    11.77333     3.92444    -7.84889
    51   2    -7.84889     7.84889    -7.84889
    52   1    -3.92444     7.84889    -7.84889
    53   1     0.00000     7.84889    -7.84889
    54   2     3.92444     7.84889    -7.84889
    55   1     7.84889     7.84889    -7.84889
    56   1    -3.92444    11.77333    -7.84889
    57   1     0.00000    11.77333    -7.84889
    58   1     3.92444    11.77333    -7.84889
    59   1    -7.84889   -11.77333    -3.92444
    60   1    -3.92444   -11.77333    -3.92444
    61   2     0.00000   -11.77333    -3.92444
    62   1     3.92444   -11.77333    -3.92444
    63   2     7.84889   -11.77333    -3.92444
    64   2   -11.77333    -7.84889    -3.92444
    65   1    -7.84889    -7.84889    -3.92444
    66   2    -3.92444    -7.84889    -3.92444
    67   1     0.00000    -7.84889    -3.92444
    68   1     3.92444    -7.84889    -3.92444
    69   1     7.84889    -7.84889    -3.92444
    70   1    11.77333    -7.84889    -3.92444
    71   1   -11.77333    -3.92444    -3.92444
    72   2    -7.84889    -3.92444    -3.92444
    73   1    -3.92444    -3.92444    -3.92444
    74   1     0.00000    -3.92444    -3.92444
    75   1     3.92444    -3.92444    -3.92444
    76   1     7.84889    -3.92444    -3.92444
    77   1    11.77333    -3.92444    -3.92444
    78   1   -11.77333     0.00000    -3.92444
    79   1    -7.84889     0.00000    -3.92444
    80   1    -3.92444     0.00000    -3.92444
    81   1     0.00000     0.00000    -3.92444
    82   1     3.92444     0.00000    -3.92444
    83   1     7.84889     0.00000    -3.92444
    84   2    11.77333     0.00000    -3.92444
    85   1   -11.77333     3.92444    -3.92444
    86   1    -7.84889     3.92444    -3.92444
    87   1    -3.92444     3.92444    -3.92444
    88   1     0.00000     3.92444    -3.92444
    89   1     3.92444     3.92444    -3.92444
    90   1     7.84889     3.92444    -3.92444
    91   2    11.77333     3.92444    -3.92444
    92   1   -11.77333     7.84889    -3.92444
    93   1    -7.84889     7.84889    -3.92444
    94   2    -3.92444     7.84889    -3.92444
    95   2     0.00000     7.84889    -3.92444
    96   2     3.92444     7.84889    -3.92444
    97   1     7.84889     7.84889    -3.92444
    98   2    11.77333     7.84889    -3.92444
    99   1    -7.84889    11.77333    -3.92444
   100   1    -3.92444    11.77333    -3.92444
   101   1     0.00000    11.77333    -3.92444
   102   1     3.92444    11.77333    -3.92444
   103   2     7.84889    11.77333    -3.92444
   104   1    -7.84889   -11.77333     0.00000
   105   2    -3.92444   -11.77333     0.00000
   106   1     0.00000   -11.77333     0.00000
   107   2     3.92444   -11.77333     0.00000
   108   1     7.84889   -11.77333     0.00000
   109   2   -11.77333    -7.84889     0.00000
   110   2    -7.84889    -7.84889     0.00000
   111   1    -3.92444    -7.84889     0.00000
   112   2     0.00000    -7.84889     0.00000
   113   1     3.92444    -7.84889     0.00000
   114   1     7.84889    -7.84889     0.00000
   115   2    11.77333    -7.84889     0.00000
   116   1   -11.77333    -3.92444     0.00000
   117   1    -7.84889    -3.92444     0.00000
   118   1    -3.92444    -3.92444     0.00000
   119   1     0.00000    -3.92444     0.00000
   120   1     3.92444    -3.92444     0.00000
   121   1     7.84889    -3.92444     0.00000
   122   1    11.77333    -3.92444     0.00000
   123   1   -11.77333     0.00000     0.00000
   124   1    -7.84889     0.00000     0.00000
   125   1    -3.92444     0.00000     0.00000
   126   1     0.00000     0.00000     0.00000
   127   1     3.92444     0.00000     0.00000
   128   1     7.84889     0.00000     0.00000
   129   2    11.77333     0.00000     0.00000
   130   2   -11.77333     3.92444     0.00000
   131   2    -7.84889     3.92444     0.00000
   132   1    -3.92444     3.92444     0.00000
   133   1     0.00000     3.92444     0.00000
   134   1     3.92444     3.92444     0.00000
   135   1     7.84889     3.92444     0.00000
   136   1    11.77333     3.92444     0.00000
   137   1   -11.77333     7.84889     0.00000
   138   2    -7.84889     7.84889     0.00000
   139   1    -3.92444     7.84889     0.00000
   140   1     0.00000     7.84889     0.00000
   141   2     3.92444     7.84889     0.00000
   142   1     7.84889     7.84889     0.00000
   143   1    11.77333     7.84889     0.00000
   144   1    -7.84889    11.77333     0.00000
   145   1    -3.92444    11.77333     0.00000
   146   2     0.00000    11.77333     0.00000
   147   1     3.92444    11.77333     0.00000
   148   1     7.84889    11.77333     0.00000
   149   1    -7.84889   -11.77333     3.92444
   150   1    -3.92444   -11.77333     3.92444
   151   2     0.00000   -11.77333     3.92444
   152   1     3.92444   -11.77333     3.92444
   153   2     7.84889   -11.77333     3.92444
   154   2   -11.77333    -7.84889     3.92444
   155   1    -7.84889    -7.84889     3.92444
   156   1    -3.92444    -7.84889     3.92444
   157   2     0.00000    -7.84889     3.92444
   158   1     3.92444    -7.84889     3.92444
   159   1     7.84889    -7.84889     3.92444
   160   2    11.77333    -7.84889     3.92444
   161   1   -11.77333    -3.92444     3.92444
   162   1    -7.84889    -3.92444     3.92444
   163   1    -3.92444    -3.92444     3.92444
   164   1     0.00000    -3.92444     3.92444
   165   1     3.92444    -3.92444     3.92444
   166   1     7.84889    -3.92444     3.92444
   167   1    11.77333    -3.92444     3.92444
   168   2   -11.77333     0.00000     3.92444
   169   1    -7.84889     0.00000     3.92444
   170   2    -3.92444     0.00000     3.92444
   171   1     0.00000     0.00000     3.92444
   172   1     3.92444     0.00000     3.92444
   173   1     7.84889     0.00000     3.92444
   174   1    11.77333     0.00000     3.92444
   175   2   -11.77333     3.92444     3.92444
   176   2    -7.84889     3.92444     3.92444
   177   1    -3.92444     3.92444     3.92444
   178   1     0.00000     3.92444     3.92444
   179   1     3.92444     3.92444     3.92444
   180   1     7.84889     3.92444     3.92444
   181   2    11.77333     3.92444     3.92444
   182   1   -11.77333     7.84889     3.92444
   183   1    -7.84889     7.84889     3.92444
   184   1    -3.92444     7.84889     3.92444
   185   1     0.00000     7.84889     3.92444
   186   1     3.92444     7.84889     3.92444
   187   1     7.84889     7.84889     3.92444
   188   1    11.77333     7.84889     3.92444
   189   1    -7.84889    11.77333     3.92444
   190   2    -3.92444    11.77333     3.92444
   191   1     0.00000    11.77333     3.92444
   192   1     3.92444    11.77333     3.92444
   193   1     7.84889    11.77333     3.92444
   194   1    -3.92444   -11.77333     7.84889
   195   2     0.00000   -11.77333     7.84889
   196   1     3.92444   -11.77333     7.84889
   197   1    -7.84889    -7.84889     7.84889
   198   2    -3.92444    -7.84889     7.84889
   199   1     0.00000    -7.84889     7.84889
   200   1     3.92444    -7.84889     7.84889
   201   1     7.84889    -7.84889     7.84889
   202   1   -11.77333    -3.92444     7.84889
   203   1    -7.84889    -3.92444     7.84889
   204   1    -3.92444    -3.92444     7.84889
   205   1     0.00000    -3.92444     7.84889
   206   1     3.92444    -3.92444     7.84889
   207   1     7.84889    -3.92444     7.84889
   208   1    11.77333    -3.92444     7.84889
   209   1   -11.77333     0.00000     7.84889
   210   1    -7.84889     0.00000     7.84889
   211   1    -3.92444     0.00000     7.84889
   212   1     0.00000     0.00000     7.84889
   213   1     3.92444     0.00000     7.84889
   214   1     7.84889     0.00000     7.84889
   215   2    11.77333     0.00000     7.84889
   216   1   -11.77333     3.92444     7.84889
   217   1    -7.84889     3.92444     7.84889
   218   2    -3.92444     3.92444     7.84889
   219   1     0.00000     3.92444     7.84889
   220   1     3.92444     3.92444     7.84889
   221   1     7.84889     3.92444     7.84889
   222   1    11.77333     3.92444     7.84889
   223   1    -7.84889     7.84889     7.84889
   224   1    -3.92444     7.84889     7.84889
   225   1     0.00000     7.84889     7.84889
   226   1     3.92444     7.84889     7.84889
   227   1     7.84889     7.84889     7.84889
   228   1    -3.92444    11.77333     7.84889
   229   1     0.00000    11.77333     7.84889
   230   2     3.92444    11.77333     7.84889
   231   2    -3.92444    -7.84889    11.77333
   232   1     0.00000    -7.84889    11.77333
   233   1     3.92444    -7.84889    11.77333
   234   2    -7.84889    -3.92444    11.77333
   235   1    -3.92444    -3.92444    11.77333
   236   1     0.00000    -3.92444    11.77333
   237   2     3.92444    -3.92444    11.77333
   238   2     7.84889    -3.92444    11.77333
   239   1    -7.84889     0.00000    11.77333
   240   1    -3.92444     0.00000    11.77333
   241   2     0.00000     0.00000    11.77333
   242   1     3.92444     0.00000    11.77333
   243   1     7.84889     0.00000    11.77333
   244   1    -7.84889     3.92444    11.77333
   245   1    -3.92444     3.92444    11.77333
   246   1     0.00000     3.92444    11.77333
   247   2     3.92444     3.92444    11.77333
   248   2     7.84889     3.92444    11.77333
   249   1    -3.92444     7.84889    11.77333
   250   2     0.00000     7.84889    11.77333
   251   1     3.92444     7.84889    11.77333
   252   1    -5.88666    -5.88666   -11.77333
   253   2    -1.96222    -5.88666   -11.77333
   254   1     1.96222    -5.88666   -11.77333
   255   1     5.88666    -5.88666   -11.77333
   256   2    -5.88666    -1.96222   -11.77333
   257   2    -1.96222    -1.96222   -11.77333
   258   2     1.96222    -1.96222   -11.77333
   259   1     5.88666    -1.96222   -11.77333
   260   1    -5.88666     1.96222   -11.77333
   261   1    -1.96222     1.96222   -11.77333
   262   1     1.96222     1.96222   -11.77333
   263   1     5.88666     1.96222   -11.77333
   264   1    -5.88666     5.88666   -11.77333
   265   1    -1.96222     5.88666   -11.77333
   266   1     1.96222     5.88666   -11.77333
   267   1     5.88666     5.88666   -11.77333
   268   1    -5.88666    -9.81111    -7.84889
   269   1    -1.96222    -9.81111    -7.84889
   270   1     1.96222    -9.81111    -7.84889
   271   2     5.88666    -9.81111    -7.84889
   272   2    -9.81111    -5.88666    -7.84889
   273   1    -5.88666    -5.88666    -7.84889
   274   1    -1.96222    -5.88666    -7.84889
   275   1     1.96222    -5.88666    -7.84889
   276   1     5.88666    -5.88666    -7.84889
   277   1     9.81111    -5.88666    -7.84889
   278   1    -9.81111    -1.96222    -7.84889
   279   1    -5.88666    -1.96222    -7.84889
   280   1    -1.96222    -1.96222    -7.84889
   281   1     1.96222    -1.96222    -7.84889
   282   2     5.88666    -1.96222    -7.84889
   283   1     9.81111    -1.96222    -7.84889
   284   1    -9.81111     1.96222    -7.84889
   285   1    -5.88666     1.96222    -7.84889
   286   1    -1.96222     1.96222    -7.84889
   287   1     1.96222     1.96222    -7.84889
   288   1     5.88666     1.96222    -7.84889
   289   1     9.81111     1.96222    -7.84889
   290   1    -9.81111     5.88666    -7.84889
   291   1    -5.88666     5.88666    -7.84889
   292   1    -1.96222     5.88666    -7.84889
   293   1     1.96222     5.88666    -7.84889
   294   2     5.88666     5.88666    -7.84889
   295   1     9.81111     5.88666    -7.84889
   296   1    -5.88666     9.81111    -7.84889
   297   1    -1.96222     9.81111    -7.84889
   298   1     1.96222     9.81111    -7.84889
   299   1     5.88666     9.81111    -7.84889
   300   2    -1.96222   -13.73555    -3.92444
   301   2     1.96222   -13.73555    -3.92444
   302   1    -9.81111    -9.81111    -3.92444
   303   2    -5.88666    -9.81111    -3.92444
   304   1    -1.96222    -9.81111    -3.92444
   305   1     1.96222    -9.81111    -3.92444
   306   1     5.88666    -9.81111    -3.92444
   307   2     9.81111    -9.81111    -3.92444
   308   2    -9.81111    -5.88666    -3.92444
   309   1    -5.88666    -5.88666    -3.92444
   310   1    -1.96222    -5.88666    -3.92444
   311   1     1.96222    -5.88666    -3.92444
   312   2     5.88666    -5.88666    -3.92444
   313   2     9.81111    -5.88666    -3.92444
   314   2   -13.73555    -1.96222    -3.92444
   315   1    -9.81111    -1.96222    -3.92444
   316   1    -5.88666    -1.96222    -3.92444
   317   1    -1.96222    -1.96222    -3.92444
   318   2     1.96222    -1.96222    -3.92444
   319   2     5.88666    -1.96222    -3.92444
   320   2     9.81111    -1.96222    -3.92444
   321   1    13.73555    -1.96222    -3.92444
   322   1   -13.73555     1.96222    -3.92444
   323   1    -9.81111     1.96222    -3.92444
   324   1    -5.88666     1.96222    -3.92444
   325   1    -1.96222     1.96222    -3.92444
   326   1     1.96222     1.96222    -3.92444
   327   1     5.88666     1.96222    -3.92444
   328   1     9.81111     1.96222    -3.92444
   329   2    13.73555     1.96222    -3.92444
   330   1    -9.81111     5.88666    -3.92444
   331   1    -5.88666     5.88666    -3.92444
   332   1    -1.96222     5.88666    -3.92444
   333   2     1.96222     5.88666    -3.92444
   334   1     5.88666     5.88666    -3.92444
   335   1     9.81111     5.88666    -3.92444
   336   1    -9.81111     9.81111    -3.92444
   337   1    -5.88666     9.81111    -3.92444
   338   1    -1.96222     9.81111    -3.92444
   339   1     1.96222     9.81111    -3.92444
   340   1     5.88666     9.81111    -3.92444
   341   2     9.81111     9.81111    -3.92444
   342   2    -1.96222    13.73555    -3.92444
   343   1     1.96222    13.73555    -3.92444
   344   1    -5.88666   -13.73555     0.00000
   345   1    -1.96222   -13.73555     0.00000
   346   1     1.96222   -13.73555     0.00000
   347   2     5.88666   -13.73555     0.00000
   348   1    -9.81111    -9.81111     0.00000
   349   2    -5.88666    -9.81111     0.00000
   350   1    -1.96222    -9.81111     0.00000
   351   2     1.96222    -9.81111     0.00000
   352   1     5.88666    -9.81111     0.00000
   353   1     9.81111    -9.81111     0.00000
   354   2   -13.73555    -5.88666     0.00000
   355   1    -9.81111    -5.88666     0.00000
   356   1    -5.88666    -5.88666     0.00000
   357   2    -1.96222    -5.88666     0.00000
   358   1     1.96222    -5.88666     0.00000
   359   1     5.88666    -5.88666     0.00000
   360   1     9.81111    -5.88666     0.00000
   361   1    13.73555    -5.88666     0.00000
   362   2   -13.73555    -1.96222     0.00000
   363   1    -9.81111    -1.96222     0.00000
   364   1    -5.88666    -1.96222     0.00000
   365   1    -1.96222    -1.96222     0.00000
   366   1     1.96222    -1.96222     0.00000
   367   1     5.88666    -1.96222     0.00000
   368   2     9.81111    -1.96222     0.00000
   369   1    13.73555    -1.96222     0.00000
   370   1   -13.73555     1.96222     0.00000
   371   2    -9.81111     1.96222     0.00000
   372   1    -5.88666     1.96222     0.00000
   373   1    -1.96222     1.96222     0.00000
   374   2     1.96222     1.96222     0.00000
   375   1     5.88666     1.96222     0.00000
   376   1     9.81111     1.96222     0.00000
   377   1    13.73555     1.96222     0.00000
   378   2   -13.73555     5.88666     0.00000
   379   1    -9.81111     5.88666     0.00000
   380   1    -5.88666     5.88666     0.00000
   381   2    -1.96222     5.88666     0.00000
   382   1     1.96222     5.88666     0.00000
   383   1     5.88666     5.88666     0.00000
   384   1     9.81111     5.88666     0.00000
   385   2    13.73555     5.88666     0.00000
   386   1    -9.81111     9.81111     0.00000
   387   1    -5.88666     9.81111     0.00000
   388   1    -1.96222     9.81111     0.00000
   389   1     1.96222     9.81111     0.00000
   390   1     5.88666     9.81111     0.00000
   391   1     9.81111     9.81111     0.00000
   392   2    -5.88666    13.73555     0.00000
   393   2    -1.96222    13.73555     0.00000
   394   1     1.96222    13.73555     0.00000
   395   1     5.88666    13.73555     0.00000
   396   1    -1.96222   -13.73555     3.92444
   397   1     1.96222   -13.73555     3.92444
   398   1    -9.81111    -9.81111     3.92444
   399   1    -5.88666    -9.81111     3.92444
   400   1    -1.96222    -9.81111     3.92444
   401   2     1.96222    -9.81111     3.92444
   402   2     5.88666    -9.81111     3.92444
   403   1     9.81111    -9.81111     3.92444
   404   2    -9.81111    -5.88666     3.92444
   405   1    -5.88666    -5.88666     3.92444
   406   1    -1.96222    -5.88666     3.92444
   407   1     1.96222    -5.88666     3.92444
   408   2     5.88666    -5.88666     3.92444
   409   1     9.81111    -5.88666     3.92444
   410   1   -13.73555    -1.96222     3.92444
   411   1    -9.81111    -1.96222     3.92444
   412   1    -5.88666    -1.96222     3.92444
   413   2    -1.96222    -1.96222     3.92444
   414   1     1.96222    -1.96222     3.92444
   415   2     5.88666    -1.96222     3.92444
   416   1     9.81111    -1.96222     3.92444
   417   2    13.73555    -1.96222     3.92444
   418   1   -13.73555     1.96222     3.92444
   419   2    -9.81111     1.96222     3.92444
   420   1    -5.88666     1.96222     3.92444
   421   2    -1.96222     1.96222     3.92444
   422   1     1.96222     1.96222     3.92444
   423   1     5.88666     1.96222     3.92444
   424   1     9.81111     1.96222     3.92444
   425   2    13.73555     1.96222     3.92444
   426   1    -9.81111     5.88666     3.92444
   427   1    -5.88666     5.88666     3.92444
   428   1    -1.96222     5.88666     3.92444
   429   1     1.96222     5.88666     3.92444
   430   1     5.88666     5.88666     3.92444
   431   2     9.81111     5.88666     3.92444
   432   1    -9.81111     9.81111     3.92444
   433   2    -5.88666     9.81111     3.92444
   434   1    -1.96222     9.81111     3.92444
   435   1     1.96222     9.81111     3.92444
   436   1     5.88666     9.81111     3.92444
   437   1     9.81111     9.81111     3.92444
   438   1    -1.96222    13.73555     3.92444
   439   1     1.96222    13.73555     3.92444
   440   2    -5.88666    -9.81111     7.84889
   441   1    -1.96222    -9.81111     7.84889
   442   1     1.96222    -9.81111     7.84889
   443   2     5.88666    -9.81111     7.84889
   444   1    -9.81111    -5.88666     7.84889
   445   1    -5.88666    -5.88666     7.84889
   446   1    -1.96222    -5.88666     7.84889
   447   1     1.96222    -5.88666     7.84889
   448   1     5.88666    -5.88666     7.84889
   449   1     9.81111    -5.88666     7.84889
   450   1    -9.81111    -1.96222     7.84889
   451   1    -5.88666    -1.96222     7.84889
   452   1    -1.96222    -1.96222     7.84889
   453   1     1.96222    -1.96222     7.84889
   454   1     5.88666    -1.96222     7.84889
   455   1     9.81111    -1.96222     7.84889
   456   2    -9.81111     1.96222     7.84889
   457   1    -5.88666     1.96222     7.84889
   458   1    -1.96222     1.96222     7.84889
   459   1     1.96222     1.96222     7.84889
   460   1     5.88666     1.96222     7.84889
   461   1     9.81111     1.96222     7.84889
   462   1    -9.81111     5.88666     7.84889
   463   1    -5.88666     5.88666     7.84889
   464   1    -1.96222     5.88666     7.84889
   465   1     1.96222     5.88666     7.84889
   466   2     5.88666     5.88666     7.84889
   467   1     9.81111     5.88666     7.84889
   468   1    -5.88666     9.81111     7.84889
   469   1    -1.96222     9.81111     7.84889
   470   1     1.96222     9.81111     7.84889
   471   2     5.88666     9.81111     7.84889
   472   1    -5.88666    -5.88666    11.77333
   473   2    -1.96222    -5.88666    11.77333
   474   2     1.96222    -5.88666    11.77333
   475   1     5.88666    -5.88666    11.77333
   476   1    -5.88666    -1.96222    11.77333
   477   2    -1.96222    -1.96222    11.77333
   478   1     1.96222    -1.96222    11.77333
   479   1     5.88666    -1.96222    11.77333
   480   1    -5.88666     1.96222    11.77333
   481   1    -1.96222     1.96222    11.77333
   482   2     1.96222     1.96222    11.77333
   483   1     5.88666     1.96222    11.77333
   484   1    -5.88666     5.88666    11.77333
   485   1    -1.96222     5.88666    11.77333
   486   2     1.96222     5.88666    11.77333
   487   1     5.88666     5.88666    11.77333
   488   1    -5.88666   -11.77333    -5.88666
   489   1    -1.96222   -11.77333    -5.88666
   490   2     1.96222   -11.77333    -5.88666
   491   1     5.88666   -11.77333    -5.88666
   492   1    -5.88666   -11.77333    -1.96222
   493   1    -1.96222   -11.77333    -1.96222
   494   1     1.96222   -11.77333    -1.96222
   495   1     5.88666   -11.77333    -1.96222
   496   1    -5.88666   -11.77333     1.96222
   497   2    -1.96222   -11.77333     1.96222
   498   1     1.96222   -11.77333     1.96222
   499   1     5.88666   -11.77333     1.96222
   500   1    -5.88666   -11.77333     5.88666
   501   1    -1.96222   -11.77333     5.88666
   502   1     1.96222   -11.77333     5.88666
   503   1     5.88666   -11.77333     5.88666
   504   1    -5.88666    -7.84889    -9.81111
   505   1    -1.96222    -7.84889    -9.81111
   506   1     1.96222    -7.84889    -9.81111
   507   1     5.88666    -7.84889    -9.81111
   508   1    -9.81111    -7.84889    -5.88666
   509   2    -5.88666    -7.84889    -5.88666
   510   2    -1.96222    -7.84889    -5.88666
   511   1     1.96222    -7.84889    -5.88666
   512   1     5.88666    -7.84889    -5.88666
   513   1     9.81111    -7.84889    -5.88666
   514   2    -9.81111    -7.84889    -1.96222
   515   1    -5.88666    -7.84889    -1.96222
   516   1    -1.96222    -7.84889    -1.96222
   517   2     1.96222    -7.84889    -1.96222
   518   1     5.88666    -7.84889    -1.96222
   519   1     9.81111    -7.84889    -1.96222
   520   1    -9.81111    -7.84889     1.96222
   521   2    -5.88666    -7.84889     1.96222
   522   2    -1.96222    -7.84889     1.96222
   523   2     1.96222    -7.84889     1.96222
   524   2     5.88666    -7.84889     1.96222
   525   1     9.81111    -7.84889     1.96222
   526   2    -9.81111    -7.84889     5.88666
   527   1    -5.88666    -7.84889     5.88666
   528   1    -1.96222    -7.84889     5.88666
   529   1     1.96222    -7.84889     5.88666
   530   1     5.88666    -7.84889     5.88666
   531   2     9.81111    -7.84889     5.88666
   532   1    -5.88666    -7.84889     9.81111
   533   2    -1.96222    -7.84889     9.81111
   534   2     1.96222    -7.84889     9.81111
   535   1     5.88666    -7.84889     9.81111
   536   1    -1.96222    -3.92444   -13.73555
   537   2     1.96222    -3.92444   -13.73555
   538   1    -9.81111    -3.92444    -9.81111
   539   1    -5.88666    -3.92444    -9.81111
   540   1    -1.96222    -3.92444    -9.81111
   541   2     1.96222    -3.92444    -9.81111
   542   2     5.88666    -3.92444    -9.81111
   543   1     9.81111    -3.92444    -9.81111
   544   1    -9.81111    -3.92444    -5.88666
   545   2    -5.88666    -3.92444    -5.88666
   546   1    -1.96222    -3.92444    -5.88666
   547   2     1.96222    -3.92444    -5.88666
   548   1     5.88666    -3.92444    -5.88666
   549   1     9.81111    -3.92444    -5.88666
   550   1   -13.73555    -3.92444    -1.96222
   551   2    -9.81111    -3.92444    -1.96222
   552   1    -5.88666    -3.92444    -1.96222
   553   1    -1.96222    -3.92444    -1.96222
   554   1     1.96222    -3.92444    -1.96222
   555   2     5.88666    -3.92444    -1.96222
   556   2     9.81111    -3.92444    -1.96222
   557   1    13.73555    -3.92444    -1.96222
   558   1   -13.73555    -3.92444     1.96222
   559   1    -9.81111    -3.92444     1.96222
   560   2    -5.88666    -3.92444     1.96222
   561   1    -1.96222    -3.92444     1.96222
   562   1     1.96222    -3.92444     1.96222
   563   1     5.88666    -3.92444     1.96222
   564   2     9.81111    -3.92444     1.96222
   565   2    13.73555    -3.92444     1.96222
   566   1    -9.81111    -3.92444     5.88666
   567   1    -5.88666    -3.92444     5.88666
   568   1    -1.96222    -3.92444     5.88666
   569   1     1.96222    -3.92444     5.88666
   570   1     5.88666    -3.92444     5.88666
   571   1     9.81111    -3.92444     5.88666
   572   1    -9.81111    -3.92444     9.81111
   573   1    -5.88666    -3.92444     9.81111
   574   2    -1.96222    -3.92444     9.81111
   575   1     1.96222    -3.92444     9.81111
   576   2     5.88666    -3.92444     9.81111
   577   1     9.81111    -3.92444     9.81111
   578   1    -1.96222    -3.92444    13.73555
   579   1     1.96222    -3.92444    13.73555
   580   1    -5.88666     0.00000   -13.73555
   581   1    -1.96222     0.00000   -13.73555
   582   1     1.96222     0.00000   -13.73555
   583   1     5.88666     0.00000   -13.73555
   584   1    -9.81111     0.00000    -9.81111
   585   1    -5.88666     0.00000    -9.81111
   586   1    -1.96222     0.00000    -9.81111
   587   1     1.96222     0.00000    -9.81111
   588   1     5.88666     0.00000    -9.81111
   589   2     9.81111     0.00000    -9.81111
   590   2   -13.73555     0.00000    -5.88666
   591   1    -9.81111     0.00000    -5.88666
   592   1    -5.88666     0.00000    -5.88666
   593   2    -1.96222     0.00000    -5.88666
   594   2     1.96222     0.00000    -5.88666
   595   1     5.88666     0.00000    -5.88666
   596   1     9.81111     0.00000    -5.88666
   597   1    13.73555     0.00000    -5.88666
   598   1   -13.73555     0.00000    -1.96222
   599   2    -9.81111     0.00000    -1.96222
   600   1    -5.88666     0.00000    -1.96222
   601   1    -1.96222     0.00000    -1.96222
   602   1     1.96222     0.00000    -1.96222
   603   1     5.88666     0.00000    -1.96222
   604   2     9.81111     0.00000    -1.96222
   605   1    13.73555     0.00000    -1.96222
   606   1   -13.73555     0.00000     1.96222
   607   1    -9.81111     0.00000     1.96222
   608   1    -5.88666     0.00000     1.96222
   609   1    -1.96222     0.00000     1.96222
   610   1     1.96222     0.00000     1.96222
   611   1     5.88666     0.00000     1.96222
   612   2     9.81111     0.00000     1.96222
   613   1    13.73555     0.00000     1.96222
   614   1   -13.73555     0.00000     5.88666
   615   1    -9.81111     0.00000     5.88666
   616   1    -5.88666     0.00000     5.88666
   617   1    -1.96222     0.00000     5.88666
   618   1     1.96222     0.00000     5.88666
   619   1     5.88666     0.00000     5.88666
   620   2     9.81111     0.00000     5.88666
   621   1    13.73555     0.00000     5.88666
   622   1    -9.81111     0.00000     9.81111
   623   1    -5.88666     0.00000     9.81111
   624   2    -1.96222     0.00000     9.81111
   625   1     1.96222     0.00000     9.81111
   626   2     5.88666     0.00000     9.81111
   627   2     9.81111     0.00000     9.81111
   628   2    -5.88666     0.00000    13.73555
   629   1    -1.96222     0.00000    13.73555
   630   1     1.96222     0.00000    13.73555
   631   1     5.88666     0.00000    13.73555
   632   1    -1.96222     3.92444   -13.73555
   633   1     1.96222     3.92444   -13.73555
   634   1    -9.81111     3.92444    -9.81111